# OOMMF OVF 2.0
#
# Segment count: 1
#
# Begin: Segment
# Begin: Header
#
# Title: Oxs_TimeDriver::Magnetization
# Desc: Oxs vector field output
# Desc:  MIF source file: C:/Users/Victor H. González/Documents/GitHub/Intro-to-magnetism-in-python/domain_wall_conversion_thin_film/drive-38/domain_wall_conversion_thin_film.mif
# Desc:  Iteration: 1717, State id: 12651
# Desc:  Stage: 38, Stage iteration: 43
# Desc:  Stage simulation time: 8e-12 s
# Desc:  Total simulation time: 3.12e-10 s
# meshunit: m
# meshtype: rectangular
# xbase: 1.0000000000000001e-09
# ybase: 1.0000000000000001e-09
# zbase: 1.0000000000000001e-09
# xnodes: 225
# ynodes: 100
# znodes: 1
# xstepsize: 2.0000000000000001e-09
# ystepsize: 2.0000000000000001e-09
# zstepsize: 2.0000000000000001e-09
# xmin: 0
# ymin: 0
# zmin: 0
# xmax: 4.5000000000000003e-07
# ymax: 2.0000000000000002e-07
# zmax: 2.0000000000000001e-09
# valuedim: 3
# valuelabels: Magnetization_x Magnetization_y Magnetization_z
# valueunits: A/m A/m A/m
#
# End: Header
#
# Begin: Data Text
 0.000000000000000 -0.000000000000000 -0.000000000000000
 -0.000000000000000 0.000000000000000 0.000000000000000
 0.000000000000000 0.000000000000000 -0.000000000000000
 0.000000000000000 0.000000000000000 0.000000000000000
 0.000000000000000 0.000000000000000 0.000000000000000
 0.000000000000000 -0.000000000000000 0.000000000000000
 -0.000000000000000 -0.000000000000000 0.000000000000000
 -0.000000000000000 -0.000000000000000 -0.000000000000000
 -0.000000000000000 0.000000000000000 -0.000000000000000
 -0.000000000000000 -0.000000000000000 -0.000000000000000
 0.000000000000000 -0.000000000000000 -0.000000000000000
 0.000000000000000 0.000000000000000 0.000000000000000
 0.000000000000000 0.000000000000000 -0.000000000000000
 0.000000000000000 0.000000000000000 0.000000000000000
 0.000000000000000 0.000000000000000 -0.000000000000000
 -0.000000000000000 0.000000000000000 -0.000000000000000
 0.000000000000000 -0.000000000000000 -0.000000000000000
 -0.000000000000000 -0.000000000000000 0.000000000000000
 0.000000000000000 -0.000000000000000 -0.000000000000000
 -0.000000000000000 -0.000000000000000 -0.000000000000000
 0.000000000000000 -0.000000000000000 0.000000000000000
 0.000000000000000 -0.000000000000000 0.000000000000000
 0.000000000000000 0.000000000000000 -0.000000000000000
 -0.000000000000000 -0.000000000000000 0.000000000000000
 0.000000000000000 -0.000000000000000 0.000000000000000
 250241.100196550 337842.812034851 399551.781536268
 186988.701855147 336710.868944726 433660.023651033
 135900.901082713 331241.127954914 456300.624847330
 96751.3834087757 323608.818307796 471504.509545688
 67737.1809652410 315375.770799822 482026.760156841
 46722.0894499223 307461.430630470 489575.852174204
 31759.2414214954 300328.833858081 495170.619219049
 21253.3119014221 294158.465836446 499418.755865225
 13968.3124504982 288968.330005257 502694.927865060
 8977.15143465382 284691.653564448 505242.588409627
 5600.69980736911 281222.295325626 507230.374458642
 3347.95833105899 278442.626091031 508781.382472416
 1870.06822155854 276237.613216492 509989.493900907
 919.721620408268 274502.841535288 510927.924565876
 325.612793948252 273147.438117218 511654.542661656
 -32.4733821117993 272094.315695416 512215.464733077
 -235.247210307490 271280.331243243 512646.980425425
 -339.336133937557 270653.137983213 512978.326784698
 -380.969271890627 270172.109777866 513231.805289375
 -385.861855877597 269803.100636234 513425.883646026
 -369.300973395653 269521.578583739 513573.735985905
 -342.200917736612 269305.515061109 513687.086129487
 -310.669725635733 269141.135954335 513773.250005809
 -278.419442958665 269014.046988202 513839.824269823
 -248.199399242429 268917.304965055 513890.476159454
 -219.904010800047 268841.261211145 513930.275341536
 -195.778791724725 268783.000146226 513960.757746210
 -173.314865425742 268736.000519529 513985.342190539
 -155.583953803497 268699.325807573 514004.521482242
 -138.290706503894 268668.877240981 514020.442470677
 -125.789245551048 268644.127090876 514033.381364135
 -112.439102564072 268623.286526153 514044.275615765
 -103.729041673483 268604.999373906 514053.833320626
 -93.2656429949092 268589.981257524 514061.682358842
 -87.0336148540851 268575.117041147 514069.449521642
 -78.7734805027574 268563.866486261 514075.328539201
 -73.9187045647792 268550.792285021 514082.159288876
 -67.5312363752007 268542.143564703 514086.678070154
 -63.1602762433843 268530.070283349 514092.985134401
 -58.5624640734178 268523.259362255 514096.543221124
 -53.9799618851564 268511.931919377 514102.460121607
 -51.2033166861893 268506.327596847 514105.387463189
 -45.9264349305865 268495.845365231 514110.862472651
 -44.9825772032921 268490.822114788 514113.485931553
 -38.7769801715746 268481.514417513 514118.347185184
 -39.5389570644553 268476.423025109 514121.005908447
 -32.4597542725235 268468.736939079 514125.020041526
 -34.5750946710526 268462.944983313 514128.044338616
 -26.9904761328809 268457.326146934 514130.978749145
 -29.8420201181041 268450.305362479 514134.644485514
 -22.4178524948135 268447.070417182 514136.333944482
 -25.1456898282861 268438.506858579 514140.805036160
 -18.7752641278990 268437.719808687 514141.216234802
 -20.3660694671705 268427.619549032 514146.489483750
 -16.0398140332191 268428.993455923 514145.772339873
 -15.4786148844831 268417.754758087 514151.639782506
 -14.1026012451843 268420.603810724 514150.152437012
 -10.5682020752543 268409.028944644 514156.195206579
 -12.7554080056069 268412.293081636 514154.491140511
 -5.82711955091116 268401.520750524 514160.114774426
 -11.6985335447061 268403.875350303 514158.885520889
 -1.53192611475680 268395.228121985 514163.399629924
 -10.5721465420823 268395.275778284 514163.374646744
 2.00144844168884 268390.034525961 514166.110671588
 -9.00942701048601 268386.557064163 514167.925785025
 4.47975943207426 268385.693303124 514168.376711494
 -6.70455189303399 268377.923822423 514172.432127409
 5.70219188737381 268381.837065591 514170.389560488
 -3.48342951234328 268369.698496303 514176.725374525
 5.62478793224169 268378.015081195 514172.384506830
 0.638398415050385 268362.267807071 514180.603695859
 4.40510486951744 268373.756372204 514174.607376976
 5.42654748373228 268356.005700879 514183.871951292
 2.41382386281403 268368.650508428 514177.272366699
 10.4393571004988 268351.185586439 514186.387495208
 0.204150789563953 268362.432654637 514180.517658579
 15.0848276552135 268347.899368150 514188.102426680
 -1.56304906388485 268355.055478641 514184.367903782
 18.7178873186481 268346.001826732 514189.092604314
 -2.23097479482516 268346.729467269 514188.713197055
 20.7634196576422 268345.095775861 514189.565376354
 -1.27786598878126 268337.916392123 514193.312504841
 20.8432187165323 268344.566740332 514189.841465683
 1.55863679673643 268329.268665680 514197.825330788
 18.8815017410904 268343.666965513 514190.311113492
 6.19290322973556 268321.519122578 514201.869247283
 15.1644968146262 268341.638814751 514191.369675000
 12.1638042806803 268315.338600321 514205.094221981
 10.3351616317422 268337.858363045 514193.342685725
 18.6825232061124 268311.188831898 514207.259379501
 5.31423957722882 268331.972688336 514196.414228012
 24.7540211241844 268309.202311114 514208.295676385
 1.15299194244965 268324.000882943 514200.574240094
 29.3538053503996 268309.117500930 514208.339687550
 -1.16087310407633 268314.371315897 514205.599098267
 31.6283265786228 268310.287893213 514207.728851201
 -0.907982443788874 268303.877602659 514211.074620679
 31.0801907113944 268311.769494082 514206.955792098
 2.19152471420371 268293.552400838 514216.461945099
 27.6994633506994 268312.476158470 514206.587249182
 7.88261710040748 268284.478013404 514221.196368781
 22.0095087412739 268311.378160716 514207.160456832
 15.3843798253925 268277.570204310 514224.800149305
 15.0094110433079 268307.708337498 514209.075592213
 23.5097143124554 268273.381022125 514226.985369546
 8.01400710893782 268301.134139721 514212.506027532
 30.8769567398101 268271.964642780 514227.723905778
 2.41460770523992 268291.855461659 514217.347322229
 36.1734472340599 268272.837826485 514227.268020674
 -0.595725848278740 268280.599168949 514223.220118651
 38.4187531419058 268275.047169927 514226.115235285
 -0.274894370736321 268268.501605542 514229.531480099
 37.1738251738180 268277.333776894 514224.922382869
 3.49577847675324 268256.896288668 514235.585681651
 32.6512745675893 268278.366485436 514224.383912120
 10.1630449060239 268247.048569692 514240.722648801
 25.6992730048792 268277.000191016 514225.097119983
 18.5935733431647 268239.894407308 514244.454226426
 17.6549930435858 268272.507993899 514227.441063742
 27.2897754826270 268235.841161959 514246.568069642
 10.0902457707502 268264.736786283 514231.495432917
 34.6846660033175 268234.674130249 514247.176357064
 4.49775181624540 268254.147479906 514237.019612162
 39.4540574746259 268235.588332701 514246.699158281
 1.98483990528171 268241.723941191 514243.500234197
 40.7823128713781 268237.338472597 514245.786162551
 3.04490807018294 268228.765609376 514250.259397503
 38.5282075187603 268238.477366229 514245.192272932
 7.46101098074226 268216.609435452 514256.599731382
 33.2558316938691 268237.637052994 514245.630960804
 14.3627851080222 268206.345991637 514261.952475123
 26.1191802092791 268233.796917789 514247.634422226
 22.4184661612919 268198.593991087 514265.995063466
 18.6179252416049 268226.480258664 514251.451083437
 30.1130549832385 268193.377678126 514268.715034079
 12.2742303792867 268215.829477322 514257.006434657
 36.0518305699178 268190.123271493 514270.411826198
 8.30782807224750 268202.535983134 514263.939648888
 39.2334365535305 268187.767197639 514271.640270278
 7.39415698931839 268187.641936389 514271.707036199
 39.2477027350174 268184.955533773 514273.106515367
 9.56745587085353 268172.272368101 514279.721787076
 36.3621699174272 268180.305176351 514275.531785551
 14.2827163120282 268157.377560124 514287.488333209
 31.4710315716955 268172.685182379 514279.505650037
 20.5982495334075 268143.555665637 514294.694830408
 25.8993339213678 268161.462568157 514285.357872973
 27.4066221241306 268130.989626121 514301.246013457
 21.0861638863206 268146.648827640 514293.082082463
 33.6380133548435 268119.485168758 514307.243329631
 18.2086836140981 268128.888423869 514302.341877834
 38.3902223217723 268108.555325444 514312.940812784
 17.8493533306334 268109.255447003 514312.576965657
 40.9983608277278 268097.485481413 514318.711109832
 19.8387803273454 268088.883646956 514323.196124141
 41.1142296965067 268085.357350503 514325.032915834
 23.3879636097233 268068.552443438 514333.793021500
 38.8599459548236 268071.101426308 514332.463558339
 27.5098956788601 268048.439353408 514344.275173165
 35.0138077418443 268053.706122293 514341.529927476
 31.5409854163357 268028.224753314 514354.809193764
 31.0437917304523 268032.633753021 514352.511687948
 35.4442302250635 268007.536704714 514365.588869608
 28.7898794989295 268008.280684927 514365.201637371
 39.6754290475797 267986.457258814 514376.571348005
 29.8154502649491 267982.154725816 514378.813579591
 44.7186069668244 267965.725842450 514387.371320462
 34.7669087307092 267956.555228316 514392.149338845
 50.6857299155261 267946.523475706 514397.373621056
 43.1788710135838 267933.926566792 514403.935764576
 57.3186006344682 267930.127340718 514405.913241445
 53.8617214690223 267916.379445851 514413.074020812
 64.3384707793316 267917.881040708 514412.290754428
 65.5619999426995 267905.779536904 514418.593163532
 71.7934648004611 267911.650383874 514415.534790978
 77.5123549742681 267904.397496413 514419.311256798
 80.2843956677493 267914.645076011 514413.973865612
 89.9648780546861 267916.086860369 514413.221357838
 91.4977636613416 267932.981177242 514404.421856612
 105.181333412152 267949.033415646 514396.057944176
 109.307156637047 267980.075720710 514379.885948768
 128.337701081842 268023.325318040 514357.347196377
 139.434902863778 268088.476425985 514323.389868186
 164.006602187139 268189.165602009 514270.886358087
 179.887195007924 268336.155358083 514194.200053092
 195.558638753629 268563.737676890 514075.364671209
 182.386653750503 268896.180130308 513901.557738871
 117.326954730006 269396.287128756 513639.588345394
 -61.0826285347250 270119.506695629 513259.630568607
 -450.116950039791 271170.114343639 512705.145752985
 -1212.38914525189 272655.749968430 511915.395472449
 -2621.32737347157 274736.999226978 510796.152979402
 -5101.15519122194 277587.914689053 509233.667223897
 -9336.76777048431 281422.978228685 507064.031550748
 -16368.2966228103 286453.045069895 504060.246236353
 -27796.6996046620 292858.906267449 499860.985185803
 -45980.7163421283 300688.882969984 493833.949200466
 -74314.8299010731 309677.236695066 484744.587519740
 -117306.861512915 318885.847780906 470054.163184460
 -179969.914485580 326108.453008962 444594.317053373
 -0.000000000000000 -0.000000000000000 -0.000000000000000
 -0.000000000000000 -0.000000000000000 -0.000000000000000
 0.000000000000000 0.000000000000000 -0.000000000000000
 0.000000000000000 -0.000000000000000 0.000000000000000
 -0.000000000000000 -0.000000000000000 -0.000000000000000
 -0.000000000000000 -0.000000000000000 -0.000000000000000
 0.000000000000000 0.000000000000000 0.000000000000000
 0.000000000000000 0.000000000000000 -0.000000000000000
 0.000000000000000 0.000000000000000 -0.000000000000000
 0.000000000000000 0.000000000000000 -0.000000000000000
 -0.000000000000000 0.000000000000000 0.000000000000000
 -0.000000000000000 -0.000000000000000 0.000000000000000
 0.000000000000000 -0.000000000000000 -0.000000000000000
 -0.000000000000000 -0.000000000000000 -0.000000000000000
 -0.000000000000000 0.000000000000000 0.000000000000000
 -0.000000000000000 0.000000000000000 0.000000000000000
 -0.000000000000000 -0.000000000000000 -0.000000000000000
 0.000000000000000 0.000000000000000 -0.000000000000000
 0.000000000000000 -0.000000000000000 0.000000000000000
 -0.000000000000000 -0.000000000000000 -0.000000000000000
 -0.000000000000000 0.000000000000000 0.000000000000000
 0.000000000000000 -0.000000000000000 -0.000000000000000
 0.000000000000000 0.000000000000000 -0.000000000000000
 0.000000000000000 -0.000000000000000 0.000000000000000
 -0.000000000000000 0.000000000000000 0.000000000000000
 248234.209552494 272613.005251723 447729.747253265
 182330.971009925 269430.417432449 480169.415074257
 130962.173824502 261598.464700893 500814.488901126
 92404.5992972950 252048.755256721 514133.071297931
 64216.9090830397 242402.823096533 522988.584906642
 44000.3821264690 233483.405047140 529102.509860157
 29714.0967553255 225646.073836405 533480.010699774
 19745.0497535297 218982.630337217 536709.176948582
 12868.7534407796 213447.787512132 539142.316268215
 8182.01944122504 208928.382297462 541000.910931238
 5027.11108354671 205287.922241601 542431.191153200
 2935.49746570569 202386.323780798 543535.793486613
 1571.82167273216 200094.320350331 544389.375667975
 704.448974550167 198297.003856125 545048.440061364
 167.701869944291 196896.093118770 545556.505222555
 -147.817054760649 195810.454321589 545947.107445850
 -322.226021987976 194971.686757519 546247.139611109
 -404.227994429081 194327.633082126 546476.538947856
 -431.914191630861 193832.146790126 546652.460271480
 -425.201511238932 193454.696688175 546786.155213316
 -401.569059026880 193163.741524994 546889.026862266
 -368.532888902880 192943.882352532 546966.655698720
 -332.831582877130 192772.442012392 547027.124394867
 -298.116919974989 192644.103831488 547072.353884991
 -264.459999632478 192541.485698339 547108.495954856
 -236.232002326204 192465.413569160 547135.274657094
 -208.207904364597 192402.142578358 547157.538722373
 -187.925562676806 192355.327679865 547174.005776183
 -165.257869442864 192314.721134105 547188.286355756
 -151.942653217102 192283.776318394 547199.165092719
 -133.387285363556 192256.684215462 547208.689242330
 -125.339898911251 192233.841102188 547216.716324537
 -109.844798807687 192215.412962554 547223.192996930
 -105.243392397637 192196.192684773 547229.944759336
 -92.3214074029771 192183.897968743 547234.265044046
 -89.3856764318075 192165.816259658 547240.615334297
 -79.1298913992725 192158.228283269 547243.281403706
 -76.1691340777844 192140.113760693 547249.642194759
 -69.0962871802034 192136.165096519 547251.029498992
 -64.5784237396453 192117.813391370 547257.472865694
 -61.3813162826508 192116.360990884 547257.983104819
 -54.0663921995491 192098.340369308 547264.309729936
 -55.3201312566813 192097.958274892 547264.443725609
 -44.4494358717053 192081.445125820 547270.240797565
 -50.3123356611533 192080.404885951 547270.605393271
 -35.8127026406910 192066.974676873 547275.320068358
 -45.7702728507754 192063.388208399 547276.577988673
 -28.4153854710548 192054.728252055 547279.618247012
 -41.1225314510272 192046.822893113 547282.391572759
 -22.5883230775485 192044.371349011 547283.252916560
 -35.8626898487801 192030.849868487 547287.996773777
 -18.6233993853754 192035.400360964 547286.400946866
 -29.6273140943345 192015.817790914 547293.271327456
 -16.6629162954762 192027.157227102 547289.293344594
 -22.2819109902504 192002.229894041 547298.038749668
 -16.6045468191227 192018.893171605 547292.192881865
 -13.9901863204444 191990.650928980 547302.101001029
 -18.0416416438263 192009.874963568 547295.356814740
 -5.24226589114007 191981.581055675 547305.282733395
 -20.2580930936078 191999.518643354 547298.989977444
 3.17722248570199 191975.315026595 547307.480681879
 -22.2909008909709 191987.526909409 547303.196605250
 10.2899330746911 191971.813743834 547308.708702885
 -23.0622760714220 191974.000099848 547307.941431326
 15.0878502931420 191970.619048689 547309.127636676
 -21.5680765233450 191959.489559476 547313.031000435
 16.7391716994999 191970.839798572 547309.050159808
 -17.0934597164893 191944.968072584 547318.124073585
 14.8005358260556 191971.227445405 547308.914246834
 -9.41377751246741 191931.705447439 547322.775293901
 9.39122342912289 191970.343415699 547309.224443242
 1.06694703879535 191921.056717008 547326.509487242
 1.28415649483531 191966.800949190 547310.467040129
 13.2830027823878 191914.192117045 547328.916363482
 -8.12242103453715 191959.544190483 547313.012204359
 25.6066381203422 191911.816909959 547329.748757199
 -16.9696511515102 191948.111572030 547317.021639162
 36.0824998811582 191913.939999258 547329.003737254
 -23.2292563973236 191932.823425741 547322.382835039
 42.7693351319986 191919.749274672 547326.966272567
 -25.0809576057436 191914.839092546 547328.689095526
 44.1334886130751 191927.637423033 547324.200127720
 -21.3088033815141 191896.048209410 547335.277711521
 39.4189525810150 191935.396110881 547321.479722754
 -11.6329701239984 191878.792546616 547341.327542081
 28.9123675583740 191940.563095958 547319.668386293
 3.10527468106103 191865.452990605 547346.003857768
 14.0315630376493 191940.871864221 547319.560687463
 20.9666520685269 191857.972199638 547348.625707457
 -2.80663559861302 191934.723783207 547321.716907329
 39.1676189368478 191857.407530638 547348.822636461
 -18.5423952345918 191921.585734406 547326.323672972
 54.5388781849882 191863.613661631 547346.645900211
 -30.0069945011765 191902.217986658 547333.114137434
 64.1149340651574 191875.137032193 547342.605392776
 -34.5431969905690 191878.661086396 547341.372661029
 65.7448304257015 191889.367158406 547337.616512115
 -30.5881817903457 191853.955173930 547350.033295407
 58.5983865619619 191902.939788554 547332.858749353
 -18.0884984262558 191831.622613594 547357.861219003
 43.4515619722281 191912.333165017 547329.566615144
 1.35987631177254 191815.002130997 547363.686186466
 22.6694350894147 191914.551821363 547328.789929144
 24.7016746264561 191806.564877845 547366.642260550
 -0.138588437802908 191907.762642211 547331.170898974
 47.9288046110329 191807.357855940 547366.362845903
 -20.7484229589929 191891.743984681 547336.786777593
 66.8183901095638 191816.702490776 547363.086242458
 -35.1259843166319 191868.035356160 547345.097515939
 77.7616095521355 191832.228664087 547357.643592288
 -40.2476384693020 191839.730953028 547355.018254147
 78.5145462884296 191850.257076653 547351.324740416
 -34.7598425013156 191810.935753591 547365.110065562
 68.7091487241644 191866.469451129 547345.643245118
 -19.3246039812228 191785.981081023 547373.854954134
 50.0040186544757 191876.741773382 547342.044306875
 3.44078930094908 191768.557577782 547379.959728795
 25.8243590707409 191877.973901592 547341.614044211
 29.4339101218889 191760.950121198 547382.624077766
 0.725708923378463 191868.739497696 547344.851810116
 53.8594505704149 191763.542841446 547381.713921882
 -20.4995842868182 191849.608465300 547351.557329910
 72.1822917051526 191774.706417453 547377.800763072
 -33.7899160894850 191823.058091929 547360.861993714
 81.0423894015562 191791.098171910 547372.056369471
 -36.6464021872656 191792.978210819 547371.402400660
 78.9382026658332 191808.317635112 547366.022926841
 -28.6425112752493 191763.870180531 547381.601145847
 66.5316115416602 191821.784901398 547361.305182223
 -11.4953861576159 191739.914085176 547389.993710577
 46.5038561332237 191827.660000392 547359.248296916
 11.3150613226044 191724.110497513 547395.529143148
 22.9855763407113 191823.607161670 547360.670131814
 35.2886924333924 191717.682131018 547397.779601834
 0.679022393092213 191809.233612264 547365.707640344
 55.8416422854232 191719.855180886 547397.016808761
 -16.1328169016809 191786.100087682 547373.813360568
 69.2367484072687 191728.053381854 547394.143878685
 -24.4609455576693 191757.301285526 547383.902581501
 73.3191574475348 191738.454217830 547390.500281524
 -23.1662349830513 191726.724159098 547394.613333514
 67.9115911334890 191746.789741707 547387.581163261
 -13.0795089690042 191698.173639932 547404.612742751
 54.7895748170222 191749.228112490 547386.728480301
 3.31390254239620 191674.580083892 547412.874655577
 37.2399286259783 191743.151905185 547388.858409315
 22.5156693640220 191657.465971242 547418.866345074
 19.2940592833676 191727.664659889 547394.284069358
 40.8011728137609 191646.767575024 547422.610798375
 4.80046786108037 191703.708132578 547402.674696767
 54.9533821623280 191641.002993101 547424.627644687
 -3.45508122774607 191673.746482179 547413.166536527
 62.7933342319986 191637.680690446 547425.789853369
 -4.35734923497863 191641.064280496 547424.608930264
 63.4602863331160 191633.800107732 547427.148238980
 1.40324041133432 191608.843914472 547435.887508108
 57.4958811215081 191626.348467631 547429.757381882
 11.7586851453715 191579.320422485 547446.220051059
 46.7935662634137 191612.810183686 547434.497254122
 24.1193356036277 191553.363455153 547455.302620475
 34.3632518371032 191591.744968565 547441.870958978
 36.2720162260964 191530.678674379 547463.238775785
 23.7636670806368 191563.350081926 547451.808235828
 46.8765445889870 191510.463466199 547470.309866710
 18.1688270178442 191529.697809710 547463.582831603
 55.3943149167579 191492.048503228 547476.750457503
 19.3716430676115 191494.323809822 547475.957073330
 61.7293521979243 191475.130672670 547482.666870259
 27.2814500657674 191461.219160098 547487.534847554
 66.0564420055613 191459.668729804 547488.073738982
 40.2752376734702 191433.805558182 547497.120053993
 69.0014417134149 191445.928594121 547492.878185219
 56.1579605595993 191414.601206266 547503.833129349
 71.8331639177550 191435.036156813 547496.686539413
 73.0645801061746 191405.775661152 547506.916581992
 76.2940891987512 191429.842050570 547498.502054303
 89.9813938547477 191410.222677368 547505.359387421
 84.3898926573281 191435.827662876 547496.407993126
 107.432902823853 191433.244480551 547497.307176776
 99.0787656875791 191463.135848265 547486.856275607
 128.973513777087 191487.022741682 547478.495913181
 125.775243793360 191533.567453888 547462.214877862
 161.791405593630 191603.111166863 547437.870095521
 170.432687539159 191699.422991095 547404.148849441
 208.629712390905 191860.942154226 547347.545303107
 221.247633925033 192083.336548683 547269.534023054
 231.086168082049 192442.243033857 547143.426987185
 183.594652925695 192949.722780054 546964.688779910
 38.6398498149793 193722.295841418 546691.568071880
 -301.048520436655 194818.082094656 546301.953372627
 -1001.46899629164 196405.173017286 545732.539869027
 -2311.14417057265 198616.734857207 544927.565138051
 -4672.44232292026 201683.076338201 543784.980485392
 -8731.16751024717 205820.869787568 542182.198411011
 -15553.0104399474 211297.998825068 539917.826672519
 -26708.6248620136 218336.508530714 536671.052322182
 -44620.2165593699 227057.053171110 531840.324608286
 -72791.5477810746 237274.432759909 524215.827813409
 -116201.763354346 248072.506156507 511231.045499557
 -181285.383880971 256820.031964374 487420.845648755
 -0.000000000000000 0.000000000000000 -0.000000000000000
 -0.000000000000000 -0.000000000000000 0.000000000000000
 -0.000000000000000 -0.000000000000000 -0.000000000000000
 0.000000000000000 0.000000000000000 0.000000000000000
 0.000000000000000 -0.000000000000000 -0.000000000000000
 -0.000000000000000 0.000000000000000 0.000000000000000
 0.000000000000000 0.000000000000000 -0.000000000000000
 -0.000000000000000 0.000000000000000 0.000000000000000
 0.000000000000000 0.000000000000000 0.000000000000000
 0.000000000000000 -0.000000000000000 -0.000000000000000
 -0.000000000000000 0.000000000000000 0.000000000000000
 -0.000000000000000 0.000000000000000 0.000000000000000
 -0.000000000000000 0.000000000000000 -0.000000000000000
 -0.000000000000000 -0.000000000000000 0.000000000000000
 -0.000000000000000 0.000000000000000 0.000000000000000
 0.000000000000000 0.000000000000000 -0.000000000000000
 -0.000000000000000 0.000000000000000 -0.000000000000000
 -0.000000000000000 0.000000000000000 0.000000000000000
 0.000000000000000 -0.000000000000000 0.000000000000000
 0.000000000000000 0.000000000000000 -0.000000000000000
 -0.000000000000000 -0.000000000000000 0.000000000000000
 -0.000000000000000 0.000000000000000 -0.000000000000000
 -0.000000000000000 -0.000000000000000 -0.000000000000000
 -0.000000000000000 0.000000000000000 -0.000000000000000
 0.000000000000000 -0.000000000000000 0.000000000000000
 244643.321919382 219731.380346465 477773.759776830
 176351.931857597 216160.543597100 508502.325974917
 124618.052925691 207314.383146366 527153.760705215
 86714.9386897815 196757.250524503 538671.610328655
 59538.7794263855 186326.948740446 546019.598473802
 40344.8848257366 176871.447208530 550898.158855843
 26947.1413642534 168699.634066134 554269.144945168
 17691.0589450105 161847.664387867 556679.764286072
 11362.7994855518 156218.250439627 558450.306667866
 7083.12778857385 151663.570186645 559774.946544566
 4227.78307585791 148019.810077435 560778.264267530
 2350.54392355330 145132.673315854 561543.392873121
 1143.35716722643 142861.778773954 562129.171009592
 384.931909119576 141087.220929917 562578.214933442
 -70.5496443225820 139708.260422498 562922.372083813
 -331.518885549957 138640.552264724 563186.192447011
 -462.857104559591 137818.764277051 563387.765199465
 -517.596897968120 137185.308743689 563542.299351477
 -521.688260188072 136702.000801145 563659.729640430
 -500.985320702301 136328.601934573 563750.176326601
 -464.252173563684 136046.564311033 563818.336708805
 -423.113894527938 135825.732557527 563871.608923382
 -380.754062788312 135661.275609570 563911.228232182
 -339.724944441074 135528.524829882 563943.174038306
 -304.194109030631 135431.617601559 563966.474553026
 -269.046929296973 135349.281728782 563986.258298243
 -243.312863739414 135290.391234001 564000.399679469
 -214.172217329784 135237.126524210 564013.185785347
 -197.590722588630 135198.892287833 564022.358140216
 -173.004009104931 135163.067815425 564030.952314086
 -163.721895595263 135135.237435186 564037.623566439
 -142.367552751547 135110.830860794 564043.476263653
 -138.172413575661 135087.309467645 564049.111096877
 -119.479026389157 135071.354831653 564052.936193673
 -118.030188726023 135048.583911064 564058.388868113
 -102.284035796538 135039.561387904 564060.552067008
 -101.172982401756 135015.701331971 564066.263977792
 -89.3614201616986 135012.506248900 564067.030742737
 -86.2066811223681 134987.067138019 564073.119616494
 -79.7010095357443 134988.363273549 564072.810396386
 -72.3535547927327 134962.037157599 564079.110844600
 -72.4863792629604 134965.905313114 564078.185315420
 -59.3449979582296 134940.426254085 564084.282568250
 -66.9354403340139 134944.277039495 564083.360518580
 -47.3204463761738 134922.191923873 564088.645415978
 -62.2180761669568 134922.931537331 564088.467063708
 -36.7172189720034 134907.217757056 564092.227609011
 -57.4540943225469 134901.645646878 564093.558464189
 -28.1372019824311 134895.166890329 564095.110028378
 -51.7840045604727 134880.553532827 564098.602725707
 -22.1864759236947 134885.401454302 564097.445466891
 -44.4947741770152 134860.153864013 564103.480684165
 -19.2977779799710 134876.975320534 564099.460340089
 -35.1722853255216 134841.259962154 564107.997970893
 -19.5590776122921 134868.707289839 564101.437164816
 -23.8436558546036 134824.877977141 564111.914171230
 -22.5810734167571 134859.332904781 564103.678253007
 -11.0688082829464 134812.016511721 564114.988350358
 -27.4391817452719 134847.718358361 564106.454581612
 2.05563019981508 134803.450682167 564117.035445619
 -32.7195916532428 134833.103282336 564109.947783837
 14.0044634099216 134799.481098686 564117.983846819
 -36.6837021056201 134815.324977906 564114.196599774
 23.0477479495030 134799.739586981 564117.921782391
 -37.5422540587149 134794.969519086 564119.060822206
 27.5680443688274 134803.094920643 564117.119789693
 -33.8035271271636 134773.399004699 564124.214848150
 26.4226295374988 134807.701165654 564116.019102698
 -24.6349027637636 134752.621047040 564129.178924538
 19.2816050224328 134811.208548171 564115.181215682
 -10.1607185821670 134734.995365157 564133.389297877