# OOMMF OVF 2.0
#
# Segment count: 1
#
# Begin: Segment
# Begin: Header
#
# Title: Oxs_TimeDriver::Magnetization
# Desc: Oxs vector field output
# Desc:  MIF source file: C:/Users/Victor H. González/Documents/GitHub/Intro-to-magnetism-in-python/domain_wall_conversion_thin_film/drive-38/domain_wall_conversion_thin_film.mif
# Desc:  Iteration: 1453, State id: 10714
# Desc:  Stage: 32, Stage iteration: 43
# Desc:  Stage simulation time: 8e-12 s
# Desc:  Total simulation time: 2.64e-10 s
# meshunit: m
# meshtype: rectangular
# xbase: 1.0000000000000001e-09
# ybase: 1.0000000000000001e-09
# zbase: 1.0000000000000001e-09
# xnodes: 225
# ynodes: 100
# znodes: 1
# xstepsize: 2.0000000000000001e-09
# ystepsize: 2.0000000000000001e-09
# zstepsize: 2.0000000000000001e-09
# xmin: 0
# ymin: 0
# zmin: 0
# xmax: 4.5000000000000003e-07
# ymax: 2.0000000000000002e-07
# zmax: 2.0000000000000001e-09
# valuedim: 3
# valuelabels: Magnetization_x Magnetization_y Magnetization_z
# valueunits: A/m A/m A/m
#
# End: Header
#
# Begin: Data Text
 0.000000000000000 -0.000000000000000 -0.000000000000000
 -0.000000000000000 0.000000000000000 0.000000000000000
 0.000000000000000 0.000000000000000 -0.000000000000000
 0.000000000000000 0.000000000000000 0.000000000000000
 0.000000000000000 0.000000000000000 0.000000000000000
 0.000000000000000 -0.000000000000000 0.000000000000000
 -0.000000000000000 -0.000000000000000 0.000000000000000
 -0.000000000000000 -0.000000000000000 -0.000000000000000
 -0.000000000000000 0.000000000000000 -0.000000000000000
 -0.000000000000000 -0.000000000000000 -0.000000000000000
 0.000000000000000 -0.000000000000000 -0.000000000000000
 0.000000000000000 0.000000000000000 0.000000000000000
 0.000000000000000 0.000000000000000 -0.000000000000000
 0.000000000000000 0.000000000000000 0.000000000000000
 0.000000000000000 0.000000000000000 -0.000000000000000
 -0.000000000000000 0.000000000000000 -0.000000000000000
 0.000000000000000 -0.000000000000000 -0.000000000000000
 -0.000000000000000 -0.000000000000000 0.000000000000000
 0.000000000000000 -0.000000000000000 -0.000000000000000
 -0.000000000000000 -0.000000000000000 -0.000000000000000
 0.000000000000000 -0.000000000000000 0.000000000000000
 0.000000000000000 -0.000000000000000 0.000000000000000
 0.000000000000000 0.000000000000000 -0.000000000000000
 -0.000000000000000 -0.000000000000000 0.000000000000000
 0.000000000000000 -0.000000000000000 0.000000000000000
 250230.148042444 337820.839164951 399577.218615558
 186975.081544815 336688.705930932 433683.103406006
 135886.005583757 331218.199919616 456321.703985796
 96735.7877812800 323584.689481155 471524.268830056
 67721.4805526143 315349.961321143 482045.851518832
 46706.1917763181 307433.565114380 489594.867917155
 31743.6505689470 300298.643439267 495189.928610319
 21237.6899152683 294125.630888822 499438.758789619
 13953.2483191907 288932.916907524 502715.701354804
 8962.18319006529 284653.297987062 505264.464629719
 5586.44697903481 281181.442025141 507253.179655695
 3333.92689896935 278398.721278759 508805.500089950
 1856.77623881640 276191.488727549 510014.523260328
 906.796258452147 274453.639137200 510954.379259923
 313.291893111311 273096.361065237 511681.814628110
 -44.2229560978185 272040.164113847 512244.226080920
 -246.685581083152 271224.614834851 512676.454943965
 -349.903066144444 270594.386731112 513009.313207331
 -391.654334274992 270111.989145721 513263.441057928
 -395.272617830736 269740.069407895 513458.994190755
 -379.349822575951 269457.194444343 513607.512071129
 -350.505724041430 269238.494229319 513722.211288228
 -320.148254042998 269072.549670461 513809.167414258
 -285.700169863572 268943.303852119 513876.850703084
 -257.097646536171 268844.529180663 513928.548565292
 -226.289759797912 268767.037742888 513969.092665948
 -204.000261356126 268706.036802554 514000.996273118
 -178.993781346208 268658.498159941 514025.854726853
 -162.949972231822 268618.206959703 514046.916474616
 -143.508406000165 268588.231352319 514062.585085095
 -132.060620178187 268558.954084542 514077.883925198
 -117.477614078193 268539.537697547 514088.030294616
 -108.646484584021 268515.974252443 514100.340174175
 -98.4014238940600 268503.053132139 514107.090766000
 -90.3752509126684 268482.558335119 514117.795550926
 -84.2184201248569 268473.560229549 514122.495486171
 -75.5680544267949 268455.127150384 514132.122120511
 -73.3660146757456 268448.157425336 514135.761635358
 -63.1727380076479 268431.797316466 514144.304839271
 -64.6763885275561 268425.237890570 514147.729237770
 -52.6317972491802 268411.554093194 514154.874390169
 -57.2576965649840 268403.939079889 514158.849197362
 -43.7293394189195 268393.779649122 514164.153878315
 -50.4145233098344 268383.855203433 514169.333706823
 -36.4446078909207 268377.992191096 514172.395193739
 -43.6180348635668 268364.885594481 514179.235556365
 -30.8201639433954 268363.715329356 514179.847275972
 -36.5159753718882 268347.141991384 514188.496615434
 -26.8493494262330 268350.433129284 514186.779602936
 -28.9629465810781 268330.870356750 514196.988686959
 -24.3896688985522 268337.604749161 514193.474562471
 -21.0477322266277 268316.366031145 514204.557814138
 -23.1111431239122 268324.720159942 514200.198382851
 -13.0958362678198 268303.878652781 514211.073906789
 -22.4890282652818 268311.379651435 514207.159658233
 -5.63175599196966 268293.516280297 514216.480764899
 -21.8472648818443 268297.377799334 514214.465557610
 0.704138786932795 268285.165884172 514220.837545511
 -20.4520200078484 268282.770032677 514222.087123169
 5.27709135195998 268278.449123434 514224.341808201
 -17.6441398645154 268267.899707041 514229.845181566
 7.59963857754513 268272.728409445 514227.326319788
 -12.9872958808781 268253.368232476 514237.425965148
 7.46758099369973 268267.170154110 514230.226028907
 -6.39886423116864 268239.941594118 514244.429909200
 5.06126729713474 268260.861762483 514233.517014238
 1.77240757834950 268228.402294669 514250.448905305
 0.985137252044451 268252.967966068 514237.634928080
 10.7510213009815 268219.372309141 514255.158654249
 -3.77446162016184 268242.901619678 514242.885917160
 19.4342060305393 268213.144556717 514258.406551909
 -7.98053310834489 268230.475497522 514249.367477184
 26.5767583586362 268209.563144604 514260.274113660
 -10.3550056240199 268215.997512944 514256.918836207
 31.0304609920853 268207.984935417 514261.096967284
 -9.83448489585661 268200.275747278 514265.118389695
 31.9925540699452 268207.339245123 514261.433661449
 -5.82083280931751 268184.514415488 514273.338015735
 29.2124761794157 268206.283167533 514261.984611043
 1.63426155988202 268170.106539030 514280.851243924
 23.1102404132685 268203.431188391 514263.472322010
 11.7649293553979 268158.357713432 514286.977328827
 14.7719819857693 268197.621646100 514266.502433479
 23.1772877400598 268150.198469896 514291.231233207
 5.80751192859803 268188.170464353 514271.431434078
 34.0810204054248 268145.951498064 514293.444964722
 -1.91937459187550 268175.056652706 514278.269991679
 42.6251058997101 268145.210697135 514293.830570899
 -6.64689278138633 268158.988393547 514286.648572145
 47.2702778010364 268146.864814184 514292.967729333
 -7.08855748373751 268141.317033851 514295.862368252
 47.1208634637417 268149.267197540 514291.715158865
 -2.73878767901105 268123.798868556 514304.995574410
 42.1451704543874 268150.523137138 514291.060747768
 5.96875127370652 268108.244268768 514313.104362987
 33.2331284176580 268148.842543229 514291.937656314
 17.7000389931138 268096.127851111 514319.420125226
 22.0686881038686 268142.890421278 514295.041614729
 30.4598148969795 268088.249184504 514323.526315282
 10.8297131513886 268132.062280560 514300.687399784
 41.9839191437144 268084.524491321 514325.466961936
 1.76606019036468 268116.619216967 514308.738499108
 50.2002773086781 268083.959002837 514325.760977707
 -3.26004379356730 268097.641027218 514318.631652610
 53.6584950588767 268084.807583574 514325.318318711
 -3.16905982721728 268076.794559673 514329.497704115
 51.8360379769321 268084.890129888 514325.275479508
 2.10079202551042 268055.960665397 514340.356133308
 45.2555628999169 268081.996819795 514326.784187879
 11.5794980274048 268036.802612471 514350.340051602
 35.3863497319497 268074.300551792 514330.796405847
 23.4795236913334 268020.377501646 514358.898720132
 24.3467324175037 268060.691250700 514337.890120331
 35.5887887274408 268006.882818636 514365.929563065
 14.4675267483551 268040.960183950 514348.173375153
 45.7500690098264 267995.596031245 514371.809506303
 7.81025907007802 268015.792275843 514361.288424539
 52.3171429910109 267985.017703723 514377.320212751
 5.74859173040737 267986.567223265 514376.515555331
 54.4876487059216 267973.181987957 514383.486094126
 8.70938353837003 267955.016820902 514392.951822492
 52.4438289469735 267958.063503159 514391.362148784
 16.1316153101811 267922.822979091 514409.720618385
 47.2764320928001 267937.992299469 514401.817694561
 26.6467944541464 267891.256310633 514426.159990197
 40.7148998552795 267911.990414059 514415.361099058
 38.4295571030608 267860.943572669 514441.943693872
 34.7295339978274 267879.963432152 514432.040201083
 49.6278262765827 267831.817583176 514457.107081991
 31.0994550964454 267842.714893951 514451.435133640
 58.7676913864353 267803.256435535 514471.974347371
 31.0462008274227 267801.793385369 514472.738340637
 65.0404551594524 267774.373098364 514487.007495347
 35.0138256120942 267759.221554192 514494.896035641
 68.4125797138068 267744.382857041 514502.614928459
 42.6367546706103 267717.182265782 514516.771837204
 69.5443127537364 267712.961222755 514518.965206272
 52.8877016962709 267677.742147253 514537.290739786
 69.5489853178341 267680.510944002 514535.848336826
 64.3539907070599 267642.675850484 514555.530455321
 69.6618738559725 267648.281352493 514552.614060292
 75.5636778352872 267613.421390611 514570.744389673
 70.9062940671049 267618.320281740 514568.197250741
 85.2788019785300 267591.158268856 514582.320667799
 73.8402724540893 267593.278860240 514581.219688826
 92.6905611285072 267576.966805992 514589.698928540
 78.4408065263991 267576.121959577 514590.140601347
 97.4832960162346 267572.007513118 514592.276751611
 84.1421591108537 267569.813082444 514593.420135860
 99.7711771895706 267577.657169217 514589.338627944
 90.0022952208374 267577.038032931 514589.662369067
 99.9436501129668 267595.552541777 514580.032911430
 94.9403049158461 267600.009469653 514577.716111163
 98.4751682262684 267627.518459222 514563.408790404
 97.9760093475072 267640.362865509 514556.728229182
 95.7572497934978 267675.386886828 514538.509817814
 98.4123305577935 267699.124640316 514526.159667146
 91.9968427347634 267740.739898990 514504.507011282
 95.9259246776057 267776.715073620 514485.783732261
 87.1997379248733 267824.625702869 514460.846190770
 90.5625005921331 267872.947209868 514435.686895391
 81.2303179740459 267927.300382010 514407.382442790
 82.6604603479236 267986.997649904 514376.284696173
 73.9188529528645 268048.040411597 514344.478503956
 72.7432512025583 268117.350233552 514308.352267545
 65.1814457363617 268185.057477090 514273.050720518
 61.4249242510945 268261.740982318 514233.054705854
 55.1269065810870 268335.534498017 514194.552564190
 49.3674914977019 268417.155088566 514151.950708166
 44.1458740522934 268495.796916871 514110.887930917
 37.3194802690313 268579.942790468 514066.934297398
 33.0049810653326 268661.645127094 514024.240039587
 26.2609208782318 268746.141952561 513980.068189398
 22.9968538828082 268828.920777860 513936.777069471
 17.6837914266174 268912.155123457 513893.230656078
 16.2121355149111 268994.503894434 513850.130496970
 14.0280576351932 269076.098916800 513807.408271747
 15.9556074498640 269158.226722460 513764.390292905
 19.1829525022734 269240.552142307 513721.251958802
 27.0728749659562 269326.803410107 513676.038210810
 38.4852162512236 269418.286135033 513628.061553250
 55.0583798316969 269522.067067012 513573.609458761
 76.0994570847649 269644.167129838 513509.510468627
 100.176864455261 269797.907070283 513428.748031400
 123.319961202999 269999.086392050 513322.976438466
 135.784777293072 270273.515387384 513178.534666679
 120.127762212994 270655.421587871 512977.220093069
 42.4777399396458 271194.231857597 512692.585086628
 -154.797795371378 271956.442185948 512288.658464350
 -571.671591173892 273031.859488798 511716.011959448
 -1372.63434532634 274537.631946175 510908.215358044
 -2826.80062290081 276622.360281839 509776.499056541
 -5363.30098419588 279467.172255241 508202.060832316
 -9657.83180370054 283279.743897909 506023.036019099
 -16755.1787851529 288276.316060858 503006.987607785
 -28243.4859889091 294637.548598438 498789.555278674
 -46480.5492676813 302417.302251993 492730.488034181
 -74840.1991598322 311356.379925622 483586.754646287
 -117809.239836584 320524.463996505 468812.383570314
 -180351.041599340 327728.968488810 443246.235186825
 -0.000000000000000 -0.000000000000000 -0.000000000000000
 -0.000000000000000 -0.000000000000000 -0.000000000000000
 0.000000000000000 0.000000000000000 -0.000000000000000
 0.000000000000000 -0.000000000000000 0.000000000000000
 -0.000000000000000 -0.000000000000000 -0.000000000000000
 -0.000000000000000 -0.000000000000000 -0.000000000000000
 0.000000000000000 0.000000000000000 0.000000000000000
 0.000000000000000 0.000000000000000 -0.000000000000000
 0.000000000000000 0.000000000000000 -0.000000000000000
 0.000000000000000 0.000000000000000 -0.000000000000000
 -0.000000000000000 0.000000000000000 0.000000000000000
 -0.000000000000000 -0.000000000000000 0.000000000000000
 0.000000000000000 -0.000000000000000 -0.000000000000000
 -0.000000000000000 -0.000000000000000 -0.000000000000000
 -0.000000000000000 0.000000000000000 0.000000000000000
 -0.000000000000000 0.000000000000000 0.000000000000000
 -0.000000000000000 -0.000000000000000 -0.000000000000000
 0.000000000000000 0.000000000000000 -0.000000000000000
 0.000000000000000 -0.000000000000000 0.000000000000000
 -0.000000000000000 -0.000000000000000 -0.000000000000000
 -0.000000000000000 0.000000000000000 0.000000000000000
 0.000000000000000 -0.000000000000000 -0.000000000000000
 0.000000000000000 0.000000000000000 -0.000000000000000
 0.000000000000000 -0.000000000000000 0.000000000000000
 -0.000000000000000 0.000000000000000 0.000000000000000
 248220.903060053 272587.902685264 447752.407691685
 182315.313763061 269405.175907200 480189.522544888
 130945.062113066 261572.525790062 500832.511384806
 92387.1237077797 252021.363620741 514149.639357790
 64198.7505296472 242373.524332671 523004.393034123
 43982.6594166457 233451.702235602 529117.972095013
 29695.8315006307 225611.490661370 533495.654033883
 19727.7208346152 218945.268055064 536725.056827951
 12850.9507688867 213406.881909736 539158.933727245
 8165.49301437266 208884.880318275 541017.958572774
 5010.23192344542 205240.413538852 542449.325030895
 2919.98730678379 202336.790189699 543554.318361889
 1556.20507106298 200040.384977084 544409.241842933
 689.953778976953 198241.802076830 545068.538693176
 153.571800372068 196836.115175187 545578.152218766
 -161.469879133850 195749.957744819 545968.797616108
 -334.724130400397 194906.122783204 546270.529372924
 -417.297403972158 194262.089570771 546499.832038835
 -442.688201000431 193761.481684729 546677.502959921
 -437.938833860732 193384.178894680 546811.089465830
 -410.588166180532 193088.487949571 546915.594254457
 -381.094863512421 192868.295938501 546993.304518880
 -340.165414160635 192693.141390882 547055.058973414
 -310.492928504637 192563.235772710 547100.816872800
 -270.331533395716 192458.684405197 547137.625938742
 -248.192810910106 192379.011355335 547165.655346050
 -213.036683427074 192316.333084113 547187.703301574
 -199.004684397177 192263.202289442 547206.379204907
 -169.669804616477 192226.252303873 547219.370213962
 -161.463659209508 192185.917791823 547233.539662914
 -138.172127893507 192165.657140699 547240.661066177
 -132.500393974965 192130.528148159 547252.996882754
 -115.851754786890 192121.587983299 547256.139306949
 -109.257745365493 192088.070668305 547267.906212006
 -100.296881781824 192086.643527325 547268.408844272
 -89.6747215550866 192053.914802064 547279.897098044
 -89.5175264525691 192056.541197258 547278.975450326
 -72.5685658098659 192025.779009008 547289.772359933
 -81.8355981235717 192028.783337861 547288.716924363
 -57.5226436937830 192002.542288429 547297.926586540
 -75.7535478486658 192001.973777720 547298.123810835
 -44.6960129506837 191983.524287426 547304.599290419
 -69.8941898161136 191975.495619383 547307.412882828
 -34.5928871099849 191968.054845063 547310.026148192
 -63.0359878073509 191949.363236746 547316.579302575
 -27.8079500330468 191955.242604794 547314.520237909
 -54.2301978578996 191924.126128444 547325.430497175
 -24.7662634214433 191943.900628436 547318.498132644
 -42.9623588445699 191900.747813331 547333.628733810
 -25.4876476275783 191932.606950377 547322.458647196
 -29.3060245825902 191880.420543819 547340.756159345
 -29.4150798345683 191919.878721135 547326.921762870
 -14.0121182601552 191864.311233111 547346.403915020
 -35.3488296191691 191904.427421686 547332.339156399
 1.51501263690408 191853.265475702 547350.275896537
 -41.5193402616946 191885.446418488 547338.993429960
 15.3832952282516 191847.521228302 547352.289080726
 -45.8112941604528 191862.867673799 547346.908193799
 25.5181802055235 191846.496750226 547352.647781563
 -46.1207644717999 191837.518450695 547355.793234670
 30.0701319800223 191848.715105728 547351.870014225
 -40.7921478139666 191811.117089299 547365.046104477
 27.8550985244822 191851.909099589 547350.750615121
 -29.0502369768116 191786.072318512 547373.822557055
 18.7374781233900 191853.318469343 547350.257002961
 -11.3255010427396 191765.091232952 547381.174005967
 3.86060245751841 191850.150760741 547351.367622459
 10.6239618660779 191750.649357432 547386.233255947
 -14.3544894598995 191840.135708763 547354.877684663
 33.8588062166781 191744.419968821 547388.414441155
 -32.4846855353479 191822.068551899 547361.208856835
 54.6846593465295 191746.785944888 547387.583974456
 -46.6435816593346 191796.219693472 547370.265849059
 69.3055564792783 191756.556403649 547384.159683995
 -53.2090919167488 191764.495048858 547381.380398940
 74.5924775792606 191770.979846152 547379.106036035
 -49.6071093869232 191730.268337734 547393.370203071
 68.8146223763410 191786.090575566 547373.812605507
 -34.9815935797840 191697.871300215 547404.717658932
 52.1703181100260 191797.356494587 547369.867018588
 -10.5815603030524 191671.808473702 547413.845024448
 26.9776845417606 191800.527116047 547368.757849963
 20.2603729247168 191655.839599970 547419.435841247
 -2.55881237003466 191792.524246338 547371.562685412
 52.6007547628336 191652.122317078 547420.735124749
 -31.0077074247587 191772.187262958 547378.687227502
 80.7500065386460 191660.613615094 547417.758816904
 -52.7023641666544 191740.691454878 547389.718996316
 99.3733922127650 191678.885856646 547411.357976507
 -62.8831492310056 191701.507963007 547403.441613604
 104.606715480517 191702.430862072 547403.112028976
 -58.7495414301774 191659.864244276 547418.023987480
 94.9460455062289 191725.422311695 547395.061563996
 -40.1755856596825 191621.778258315 547431.358695356
 71.7034662365854 191741.804773908 547389.326860378
 -9.89832080055409 191592.849551658 547441.485368710
 38.9003695946590 191746.497834340 547387.686247167
 26.9004836463740 191577.064114416 547447.009108339
 2.58302916458676 191736.463118090 547391.202618651
 63.5598459038664 191575.883194793 547447.419336580
 -30.3280550743468 191711.392544136 547399.982689987
 93.2617116212070 191587.832427198 547443.233375024
 -53.4296044299242 191673.842450065 547413.130337321
 110.430065040212 191608.699634369 547435.926871472
 -62.1704039062559 191628.752873146 547428.915209202
 111.902322882983 191632.314717779 547427.660457321
 -54.8264473609509 191582.431899060 547445.128557833
 97.6121725664403 191651.755099067 547420.857512126
 -32.8831844815114 191541.216851949 547459.552081769
 70.6253849678506 191660.723554656 547417.721724974
 -0.724568713527864 191510.109863606 547470.435566619
 36.5096418839672 191654.802240351 547419.798185322
 35.3085991551818 191491.698524632 547476.874533942
 2.16756820195853 191632.307644794 547427.674366242
 68.2791846054315 191485.607535141 547479.001830071
 -25.6132784404673 191594.555076011 547440.887958860
 92.1243701993199 191488.602149847 547477.950934828
 -41.5695368520720 191545.473306189 547458.062254892
 102.906267037536 191495.312280739 547475.601999580
 -43.0118552686336 191490.661420926 547477.236730950
 99.5685365840230 191499.405377755 547474.170921399
 -30.2811546008432 191436.112989582 547496.313893063
 84.0429687147412 191494.938880187 547475.735827674
 -6.52069719171404 191386.911307451 547513.515940633
 60.7011258519562 191477.589512534 547481.807030921
 23.1612462033562 191346.201556274 547527.744149593
 35.2960999036520 191445.493124569 547493.033669356
 52.9201094918951 191314.671123135 547538.760100605
 13.6536643937498 191399.526419455 547509.105951660
 77.4926383435534 191290.639519512 547547.153428002
 0.423050123250759 191342.997986771 547528.864190058
 93.2939805303493 191270.709762464 547554.113200875
 -1.82804942755856 191280.857330898 547550.576308175
 99.0531285418563 191250.801912860 547561.065960835
 7.01458819635596 191218.640994795 547572.306902841
 95.8685776592092 191227.307705695 547569.271961865
 24.8217228667133 191161.425792124 547592.283248225
 86.7116205797373 191198.090171946 547579.476236734
 47.9158329742792 191113.038488490 547609.171055206
 75.5366964863181 191163.104676868 547591.692508668
 72.0425049060481 191075.687379286 547622.202346117
 66.2444296358058 191124.522553709 547605.161124594
 93.3582852453957 191050.059889376 547631.140367763
 61.7626811246268 191086.367320999 547618.477052624
 109.195128337699 191035.806282333 547636.109834334
 63.4607377192792 191053.791880666 547629.842668160
 118.441537422646 191032.235936693 547637.353368659
 71.0076836256723 191032.201517889 547637.373579578
 121.494753763848 191039.011978971 547634.988967217
 82.6595425266478 191026.442702853 547639.380756802
 119.853902841981 191056.649149255 547628.836394597
 95.8483936480961 191040.231012687 547634.568802687
 115.509712606792 191086.688942077 547618.356126473
 107.881617736514 191075.901256819 547622.121832611
 110.321094016868 191131.522660684 547602.710799230
 116.555697704291 191134.459978938 547601.684277294
 105.546883580364 191193.928196915 547580.926147440
 120.541295525328 191215.837672001 547573.272624944
 101.633801003772 191276.453641650 547552.105240080
 119.482519870449 191319.199016359 547537.167516203
 98.2739731458465 191380.804279284 547515.641873034
 113.843371029634 191443.181941839 547493.831132069
 94.6670168767756 191507.368482065 547471.386334693
 104.601007385454 191585.990981685 547443.875770106
 89.8769303956008 191654.966519687 547419.734509522
 92.9125786670926 191745.345524243 547388.083389693
 83.1733120409117 191820.846838035 547361.631648163
 79.8689507372885 191918.353581653 547327.451512765
 74.2840595881472 192000.909253176 547298.497465352
 66.4081239562338 192101.427289719 547263.224804311
 63.5460799151336 192190.120144788 547232.083928407
 53.4161346845487 192290.375094779 547196.864750361
 52.0028304644099 192383.114117539 547164.266649554
 42.0158848742952 192480.822383128 547129.903450159
 41.5462137084994 192575.072784104 547096.736981779
 34.0401264981383 192669.190522444 547063.599469656
 35.2101627713596 192763.191119499 547030.484442752
 32.6618700855105 192854.720038892 546998.222933057
 37.6159550498348 192949.507446614 546964.794261156
 42.9568075984836 193043.647273761 546931.575612486
 55.1007141389105 193146.807299732 546895.152468763
 71.3628380617997 193257.925116249 546855.894443049
 93.5556063467556 193391.056928253 546808.824313875
 120.478459073454 193553.197555686 546751.447369745
 147.750742830638 193766.769321880 546675.788083101
 168.744964242300 194054.383186572 546573.753386692
 164.873214805821 194455.895975328 546431.036213405
 107.164906711820 195021.655931865 546229.386094593
 -61.9686588347924 195824.666196283 545942.026472591
 -436.067842482208 196961.321795888 545532.810710092
 -1176.79899913989 198559.607233939 544952.013960146
 -2544.87102595605 200783.415454039 544131.917562343
 -4962.91995463623 203834.414595969 542979.650495156
 -9096.68145407615 207949.736395353 541363.239904250
 -15984.3500870071 213384.037172263 539084.180098399
 -27215.2084101840 220371.288637035 535813.239455356
 -45180.8889859018 229034.346315462 530944.399611007
 -73390.4040767505 239196.222010555 523258.077783160
 -116783.360717177 249954.858143135 510180.571513897
 -181763.738705009 258690.487960551 486252.171954748
 -0.000000000000000 0.000000000000000 -0.000000000000000
 -0.000000000000000 -0.000000000000000 0.000000000000000
 -0.000000000000000 -0.000000000000000 -0.000000000000000
 0.000000000000000 0.000000000000000 0.000000000000000
 0.000000000000000 -0.000000000000000 -0.000000000000000
 -0.000000000000000 0.000000000000000 0.000000000000000
 0.000000000000000 0.000000000000000 -0.000000000000000
 -0.000000000000000 0.000000000000000 0.000000000000000
 0.000000000000000 0.000000000000000 0.000000000000000
 0.000000000000000 -0.000000000000000 -0.000000000000000
 -0.000000000000000 0.000000000000000 0.000000000000000
 -0.000000000000000 0.000000000000000 0.000000000000000
 -0.000000000000000 0.000000000000000 -0.000000000000000
 -0.000000000000000 -0.000000000000000 0.000000000000000
 -0.000000000000000 0.000000000000000 0.000000000000000
 0.000000000000000 0.000000000000000 -0.000000000000000
 -0.000000000000000 0.000000000000000 -0.000000000000000
 -0.000000000000000 0.000000000000000 0.000000000000000
 0.000000000000000 -0.000000000000000 0.000000000000000
 0.000000000000000 0.000000000000000 -0.000000000000000
 -0.000000000000000 -0.000000000000000 0.000000000000000
 -0.000000000000000 0.000000000000000 -0.000000000000000
 -0.000000000000000 -0.000000000000000 -0.000000000000000
 -0.000000000000000 0.000000000000000 -0.000000000000000
 0.000000000000000 -0.000000000000000 0.000000000000000
 244625.295901193 219703.466676483 477795.825992222
 176331.404186362 216132.421856216 508521.397898095
 124596.469461339 207284.952497229 527170.435690385
 86692.1295532371 196725.917245414 538686.725432765
 59516.2280353568 186292.810180668 546033.705438990
 40321.3214337345 176834.015763298 550911.900313347
 26924.6939386113 168658.714700405 554282.688537103
 17667.6454336692 161802.466026809 556693.646714667
 11341.1682104403 156169.725710365 558464.318175452
 7060.61266715873 151610.036170267 559789.732561445
 4207.39511520695 147963.753515066 560793.210971814
 2329.49710028349 145070.927461295 561559.435366177
 1124.29968951646 142798.688963627 562145.239578241
 365.747464111079 141017.714904711 562595.654366301
 -88.4853354216572 139638.689291304 562939.631420059
 -348.562596900937 138563.861850629 563205.055635296
 -480.059376253979 137743.096462396 563406.255662773
 -532.287326839213 137102.070555416 563562.542154479
 -538.586776913612 136620.356268445 563679.508388735
 -513.178055111041 136239.522851432 563771.699415196
 -481.181931055891 135958.786195290 563839.495708001
 -432.790544546428 135731.606874122 563894.266319239
 -397.831224737117 135566.980042856 563933.892980707
 -347.084468647250 135430.214301062 563966.786776261
 -321.213484261579 135330.296379707 563990.786896096
 -274.595701961290 135247.636485674 564010.639458370
 -259.684598793246 135181.562136863 564026.486809038
 -218.774363351811 135132.846390015 564038.177754228
 -212.340285134355 135082.285404235 564050.291269824
 -177.856967813040 135056.523462853 564056.472205600
 -175.576987658011 135010.992682228 564067.372773572
 -148.878735737032 135001.881681698 564069.561115935
 -145.750299450043 134956.145984196 564080.506149559
 -129.038063420570 134959.212931696 564079.776444817
 -120.119083619979 134911.892015186 564091.098107645
 -115.950194816568 134922.755283549 564088.500735698
 -97.0745387722482 134875.507695883 564099.803226621
 -107.513816225512 134888.990212791 564096.577511469
 -76.0788815748322 134845.837538196 564106.899719039
 -101.724426069236 134855.796877134 564104.514873595
 -57.4720788704624 134822.309412121 564112.525638053
 -96.5806984943981 134822.093309655 564112.571946214
 -42.1943621014250 134804.305621150 564116.829571353
 -90.1346079632672 134787.716716978 564120.787861940
 -31.4401575715990 134790.785084853 564120.061039957
 -80.6800302793459 134753.371313088 564128.994477761
 -26.2651753073138 134780.119258080 564122.609689523
 -67.0352963574356 134720.526248000 564136.840947063
 -27.1895593836261 134770.132249248 564124.995647462
 -48.8464370383459 134691.193702869 564143.846862591
 -33.8613243623458 134758.334321559 564127.813694990
 -26.8216399056955 134667.565682409 564149.489084032
 -44.8554489013646 134742.316605632 564131.638984853
 -2.80862679468214 134651.537705406 564153.315496489
 -57.6780727446966 134720.242958021 564136.909633266
 20.3512414560439 134644.192877617 564155.068141874
 -69.0189974882730 134691.343020769 564143.809105125
 39.2161608527991 134645.351875050 564154.790532294
 -75.2503824395749 134656.289864931 564152.176223040
 50.3525359017912 134653.304465504 564152.891564992
 -73.1118227297529 134617.346482539 564161.470397139
 51.0686942158102 134664.821037012 564150.142574703
 -60.4640377953284 134578.194697078 564170.812658875
 40.1353681181500 134675.498316996 564147.594643655
 -36.9510484015806 134543.418047662 564179.109232761
 18.3300797893497 134680.428097935 564146.418894391
 -4.39960767089584 134517.688306572 564185.245742300
 -11.3491811128909 134675.102505878 564147.690446595
 33.1851786023137 134504.786559586 564188.320768255
 -43.9102560221265 134656.399105506 564152.153458469
 70.0978739579730 134506.652724146 564187.872485074