# ODT 1.0
# Table Start
# Title: mmArchive Data Table, Fri Apr 16 16:40:59 CEST 2021
# Columns: {Anv_SpinTEvolve:evolver:Total energy} {Anv_SpinTEvolve:evolver:Energy calc count} {Anv_SpinTEvolve:evolver:Max dm/dt} Anv_SpinTEvolve:evolver:dE/dt {Anv_SpinTEvolve:evolver:Delta E} {Anv_SpinTEvolve:evolver:average u} Oxs_UniformExchange:exchange:Energy {Oxs_UniformExchange:exchange:Max Spin Ang} {Oxs_UniformExchange:exchange:Stage Max Spin Ang} {Oxs_UniformExchange:exchange:Run Max Spin Ang} Oxs_DMExchange6Ngbr:dmi:Energy Oxs_UniaxialAnisotropy:uniaxialanisotropy:Energy Oxs_TimeDriver::Iteration {Oxs_TimeDriver::Stage iteration} Oxs_TimeDriver::Stage Oxs_TimeDriver::mx   Oxs_TimeDriver::my   Oxs_TimeDriver::mz   {Oxs_TimeDriver::Last time step} {Oxs_TimeDriver::Simulation time}
# Units:                     J                                        {}                                    deg/ns                             J/s                              J                                 m/s                                  J                                      deg                                            deg                                              deg                                     J                                       J                                    {}                            {}                          {}                   {}                   {}                   {}                          s                                 s                
                    -1.2192926870900001e-18                      289                                     19249.0185303                    4.0937928635499997e-08             7.1278409671800002e-21                1200                                1.55693915749e-18                       26.595316348400001                             29.002030967300001                               29.002030967300001                     -4.6804029282600003e-18                     1.9041710836900001e-18                  45                            45                          0                     0.0142339607832      0.0077098743358300003  0.97563048704400002        1.7042047608600001e-13              7.9999999999999998e-12       
                    -1.1193025134700001e-18                      566                                     16705.337925600001              -9.1816407753900008e-09            -9.6746365537399994e-22                1200                                1.8659670184399999e-18                     32.689188116899999                             32.689188116899999                               32.689188116899999                     -4.8981171350000003e-18                     1.9128476030799998e-18                  89                            43                          1                     0.0080127059987699992  0.0104584661004      0.97323163566699999        1.0260970662800001e-13              1.6e-11                   
                    -1.1406621263999999e-18                      843                                     16218.136382000001               4.24939774864e-09               3.39694690514e-22                  1200                                2.1433567395799999e-18                     28.953081390299999                             37.007098883799998                               37.007098883799998                     -5.3296370389400002e-18                     2.0456181729600001e-18                  133                           43                          2                     0.010052422899299999  0.00195306227874     0.96573449693000002        9.5193744000799997e-14              2.4000000000000001e-11       
                    -1.0577921142899999e-18                      1114                                    15114.531406300001               1.0202670915300001e-08             1.2922646859799999e-21                1200                                2.2677877776500002e-18                     23.7544134734                                  28.953081390299999                               37.007098883799998                     -5.7017240838699998e-18                     2.3761441919199999e-18                  177                           43                          3                     0.016259248655499998  0.0059895001833799996  0.95274159365099997        1.2945599884000001e-13              3.1999999999999999e-11       
                    -1.0160076192299999e-18                      1391                                    14939.601551100001               1.2564437170000001e-09             8.8375392760900004e-23                1200                                2.4675736266499999e-18                     22.669708583599999                             23.7544134734                                    37.007098883799998                     -6.0383935274500001e-18                     2.5548122815699999e-18                  221                           43                          4                     0.0127934598856      0.0059109865264      0.93613160913600002        1.10700042985e-13                3.9999999999999998e-11       
                    -9.6284968082700009e-19                      1668                                    14849.1659999                    1.16592734743e-08               1.26190092377e-21                  1200                                2.7080403683800001e-18                     22.013491149                                   22.696847094599999                               37.007098883799998                     -6.4967029371899999e-18                     2.8258128879799999e-18                  265                           43                          5                     0.0157257931396      0.0017054956330700001  0.91363616297000005        1.1414006281200001e-13              4.8000000000000002e-11       
                    -8.4791030710099995e-19                      1945                                    15690.1392485                    1.34057585089e-08               1.63610584083e-21                  1200                                2.9815165873499998e-18                     22.852422683499999                             22.852422683499999                               37.007098883799998                     -6.9781648370599994e-18                     3.1487379426199999e-18                  309                           43                          6                     0.0196121386497      0.00142804800304     0.88558620084700002        1.2575885366500001e-13              5.6e-11                   
                    -7.4481800901199999e-19                      2222                                    16064.976049999999               1.19530127034e-08               1.41801155865e-21                  1200                                3.2849771322799998e-18                     23.171311032999999                             23.174210411800001                               37.007098883799998                     -7.4591417894099993e-18                     3.42934664813e-18                    353                           43                          7                     0.020684458987800001 -0.00088016768605400002  0.85287147941800001        1.2367443251400001e-13              6.3999999999999999e-11       
                    -6.2999123169099999e-19                      2499                                    16053.3790952                    1.5194370093000001e-08             2.1631650126299999e-21                1200                                3.5843827582500001e-18                     23.1521393397                                  23.1781607323                                    37.007098883799998                     -7.9680686543400005e-18                     3.7536946644e-18                     397                           43                          8                     0.024198525658      -0.0031383206377200001  0.814696497066             1.4391080853199999e-13              7.1999999999999997e-11       
                    -5.0558824327200004e-19                      2776                                    16440.828600299999               1.42219105632e-08               1.68298348907e-21                  1200                                3.8942014560599997e-18                     23.1096444533                                  23.1521393397                                    37.007098883799998                     -8.4721143907300007e-18                     4.0723246914000001e-18                  441                           43                          9                     0.0272077596924     -0.0042696789267200001  0.77101016676699996        1.2259247534899999e-13              7.9999999999999995e-11       
                    -3.8184424534e-19                         3053                                    15850.879763999999               1.6091801129400001e-08             2.0371366145000002e-21                1200                                4.2201873573400004e-18                     23.007957460099998                             23.1096444533                                    37.007098883799998                     -8.9863098512699994e-18                     4.3842782485899998e-18                  485                           43                          10                    0.0292054619159     -0.0060936176315399999  0.72197322182900003        1.30384539392e-13                8.8000000000000006e-11       
                    -2.3075288276100001e-19                      3330                                    21536.640984999998               1.2751730319199999e-08             1.43073141032e-21                  1200                                4.4818069705999999e-18                     23.166856430100001                             23.166856430100001                               37.007098883799998                     -9.3935868567700006e-18                     4.6810270034099998e-18                  529                           43                          11                    0.031595369510500002 -0.0071392381957600002  0.668363809689             1.1734380679000001e-13              9.6000000000000005e-11       
                    -2.0439215273999999e-19                      3607                                    30070.352097300001               3.5883189119899999e-09             1.28793930859e-22                  1200                                4.6944094485700001e-18                     25.6272194957                                  25.933074222199998                               37.007098883799998                     -9.6869878250200007e-18                     4.7881862237099999e-18                  573                           43                          12                    0.030074101269200001 -0.0097752187840700003  0.61261860726200001        1.09136655797e-13                1.04e-10                  
                    -1.2855468027300001e-19                      3884                                    26032.8268164                    5.4287742594400004e-09             5.9014810231099999e-22                1200                                4.8375285355299999e-18                     24.718093303500002                             26.0276052392                                    37.007098883799998                     -9.9305834452800005e-18                     4.96450022947e-18                    617                           43                          13                    0.028599678721499999 -0.010495110879600001  0.557180107516             1.37440843947e-13                1.12e-10                  
                    -1.00119554445e-19                        4161                                    24375.729893                    -3.4241691240699999e-09            -6.27697623532e-22                  1200                                4.9637804801699998e-18                     24.4410117292                                  24.966334010000001                               37.007098883799998                     -1.00855125439e-17                       5.0216125093099996e-18                  661                           43                          14                    0.0303186157127     -0.0126924791194      0.50086943418499996        1.3486277063599999e-13              1.2e-10                   
                    -7.3647798339199994e-20                      4438                                    23631.042571900001               6.7003122468100002e-09             6.7275473500099996e-22                1200                                5.1158916253800001e-18                     24.429542358500001                             24.685347521299999                               37.007098883799998                     -1.02892591981e-17                       5.0997197744299999e-18                  705                           43                          15                    0.0288133655616     -0.016833562881600001  0.444852223198             1.3159302287599999e-13              1.28e-10                  
                     1.75179206416e-20                        4715                                    23224.493729099999               7.36043318839e-09               7.4742123130800001e-22                1200                                5.2986247701600002e-18                     24.707603428700001                             24.751870577599998                               37.007098883799998                     -1.05710301619e-17                       5.2899233123500002e-18                  749                           43                          16                    0.027125590644000001 -0.017101971302800001  0.389621551894             1.30440603242e-13                1.36e-10                  
                     7.4095318805600004e-20                      4992                                    23111.133048700001               1.83751198389e-09               2.5062811459200001e-23                1200                                5.4880732001900002e-18                     24.743869989899999                             24.9385888612                                    37.007098883799998                     -1.07910374655e-17                       5.3770595841200002e-18                  793                           43                          17                    0.0285543144047     -0.018998103617600001  0.333642885404             1.3201423301699999e-13              1.4399999999999999e-10       
                     1.3811377928199999e-19                      5269                                    22971.719933299999               8.5964293965100002e-09             8.82668675115e-22                  1200                                5.70499450343e-18                       25.746311646900001                             25.809676145800001                               37.007098883799998                     -1.1064386610300001e-17                     5.4975058861799997e-18                  837                           43                          18                    0.027275286846600001 -0.0223708317288      0.27798236680799998        1.3121812175599999e-13              1.5199999999999999e-10       
                     2.4528454211299999e-19                      5546                                    22821.450107500001               9.4263061223299998e-09             9.9595071702400007e-22                1200                                5.9481260511900003e-18                     26.4437256418                                  26.652867744400002                               37.007098883799998                     -1.1397686607e-17                        5.6948450978800002e-18                  881                           43                          19                    0.025985428169499999 -0.022957998729799999  0.22300238760499999        1.31673319615e-13                1.5999999999999999e-10       
                     3.3599751314799998e-19                      5823                                    22411.7996207                    6.8898592169699996e-09             6.5875893737700001e-22                1200                                6.1968933800600001e-18                     27.2458719955                                  27.378888398200001                               37.007098883799998                     -1.1706243456300001e-17                     5.8453475893799997e-18                  925                           43                          20                    0.026597763892000002 -0.024762880363700002  0.167894748284             1.3236382439599999e-13              1.6799999999999999e-10       
                     4.3546622227699999e-19                      6100                                    21738.922373699999               1.10528905055e-08               1.23171025887e-21                  1200                                6.44311300668e-18                       27.760256494299998                             27.922957710599999                               37.007098883799998                     -1.20484566339e-17                       6.0408098495099996e-18                  969                           43                          21                    0.025468220781799999 -0.027504714835800002  0.113303016304             1.3357096653199999e-13              1.7600000000000001e-10       
                     5.5607695492300003e-19                      6377                                    20990.846961700001               1.0077462564099999e-08             1.1511920144400001e-21                1200                                6.6593442261699997e-18                     25.277058651499999                             27.885914849700001                               37.007098883799998                     -1.24118783506e-17                       6.3086110793199999e-18                  1013                          43                          22                    0.024730951657000001 -0.0288591883486      0.059025902970400002        1.3497389272600001e-13              1.8400000000000001e-10       
                     5.6912108598899996e-19                      6654                                    25657.481837300002              -9.95174412974e-09              -1.65348458629e-21                  1200                                6.8252364705100001e-18                     29.968404771700001                             31.413410170199999                               37.007098883799998                     -1.27366591972e-17                       6.4805438127200003e-18                  1057                          43                          23                    0.025097103533100001 -0.032375912236199997  0.0029822745871399998        1.2262014058699999e-13              1.9200000000000001e-10       
                     6.1548704665399998e-19                      6931                                    26467.609853099999               6.0105320923299998e-09             3.5675243835499998e-22                1200                                6.9760232787099998e-18                     25.5609111787                                  29.968404771700001                               37.007098883799998                     -1.30002050028e-17                       6.6396687707199999e-18                  1101                          43                          24                    0.0231638468655     -0.037845454539799997 -0.051461586538299998        1.3042549791e-13                 2.0000000000000001e-10       
                     7.1198992936000003e-19                      7208                                    23593.9803794                    5.8482851566000001e-09             5.36293871277e-22                  1200                                7.1275002865299995e-18                     25.1447403096                                  25.639858483600001                               37.007098883799998                     -1.3296777757100001e-17                     6.8812673999400001e-18                  1145                          43                          25                    0.022151188776299999 -0.041883160229899997 -0.103826191367             1.3844599061199999e-13              2.0800000000000001e-10       
                     7.8677907986900001e-19                      7485                                    23019.651122399999               3.6621218390999999e-09             2.0135623872599999e-22                1200                                7.3237817583699994e-18                     23.7705801042                                  25.161439453500002                               37.007098883799998                     -1.36702547689e-17                       7.1332520904400007e-18                  1189                          43                          26                    0.020892231778500001 -0.044919854087199999 -0.15534629741100001        1.35396051858e-13                2.16e-10                  
                     8.5676571406399998e-19                      7762                                    22707.5471602                    4.8541361771799997e-09             3.6314855085300002e-22                1200                                7.5456658803399999e-18                     23.590681945699998                             24.021879376499999                               37.007098883799998                     -1.4080455955299999e-17                     7.3915557889999994e-18                  1233                          43                          27                    0.0196305538787     -0.047917491550499999 -0.20683058525799999        1.34971558302e-13                2.24e-10                  
                     9.3594521533199993e-19                      8039                                    22646.2927246                    5.3853170606500001e-09             4.10180559497e-22                  1200                                7.7800947430900004e-18                     23.569794714499999                             23.590681945699998                               37.007098883799998                     -1.44940626186e-17                       7.6499130908000005e-18                  1277                          43                          28                    0.018507000721700001 -0.050742692548900001 -0.25874690209000001        1.3373999302499999e-13              2.32e-10                  
                     1.0172730779800001e-18                      8316                                    22661.500756400001               5.5250170649600001e-09             4.0575674810200001e-22                1200                                8.0276845377299998e-18                     23.5481798858                                  23.569794714499999                               37.007098883799998                     -1.4902582173399998e-17                     7.8921707136400006e-18                  1321                          43                          29                    0.017619818673100002 -0.053723660173400002 -0.311209298809             1.3323780998200001e-13              2.4e-10                   
                     1.1090589002e-18                         8593                                    22685.898738700002               7.9937521929399993e-09             7.1710616096099995e-22                1200                                8.2974394775299999e-18                     23.525854850399998                             23.5481798858                                    37.007098883799998                     -1.53170906766e-17                       8.1287100992800002e-18                  1365                          43                          30                    0.016509829864899999 -0.056737926459700001 -0.363963934622             1.3321628626699999e-13              2.4800000000000002e-10       
                     1.2583406530399999e-18                      8870                                    22501.863281999998               2.35715048362e-08               2.7373801573400001e-21                1200                                8.6486697525000002e-18                     23.503488432000001                             23.525854850399998                               37.007098883799998                     -1.5692630837600001e-17                     8.30230173811e-18                    1409                          43                          31                    0.0152454008664     -0.0592895021789     -0.41653945800300002        1.3286365045600001e-13              2.5599999999999999e-10       
                     1.4351726625299999e-18                      9147                                    22791.080982899999              -4.26007274938e-08              -5.8030750964500001e-21                1200                                8.6004590053899998e-18                     23.9016258513                                  23.9016258513                                    37.007098883799998                     -1.54935802242e-17                       8.3282938813700005e-18                  1453                          43                          32                    0.0115597991153     -0.060000059484899997 -0.46615622923900002        1.3234652718099999e-13              2.6400000000000002e-10       
                     1.03386479489e-18                        9424                                    22400.501889399999              -3.5918382748199999e-08            -5.2289099952499996e-21                1200                                7.9804412726399996e-18                     24.275052972600001                             25.391464430100001                               37.007098883799998                     -1.46403838583e-17                       7.6938073805500008e-18                  1497                          43                          33                   -0.00038071634552199997 -0.058142475845799999 -0.49875459325499999        1.3683272939499999e-13              2.7199999999999999e-10       
                     7.4935487977800003e-19                      9701                                    23227.161404999999              -4.7896685253699997e-08            -6.6575437889499997e-21                1200                                7.5731372533099996e-18                     26.8635525786                                  28.5016117268                                    37.007098883799998                     -1.4171938332700001e-17                     7.3481559591899996e-18                  1541                          43                          34                   -0.0056103965709000002 -0.0528134542119     -0.51376610286199997        1.31918209514e-13                2.8000000000000002e-10       
                     3.8767784848999998e-19                      9978                                    16790.031531500001              -2.2471208409799999e-08            -3.4793216383099998e-21                1200                                7.0936432436499993e-18                     24.0610728228                                  26.891030766699998                               37.007098883799998                     -1.37658416067e-17                       7.0598762115799996e-18                  1585                          43                          35                   -0.0087820254963100006 -0.049230765028700003 -0.52184866516299999        1.50309299872e-13                2.8799999999999999e-10       
                     3.0006503951500002e-19                      10249                                   17379.844868100001              -1.09442036035e-08              -1.7049586315099998e-21                1200                                6.9839480008099998e-18                     24.522846898200001                             24.522846898200001                               37.007098883799998                     -1.3682606041600001e-17                     6.9987230802600003e-18                  1629                          43                          36                   -0.0091310360012000005 -0.047489491918399997 -0.52586575389000001        1.4168865021399999e-13              2.9600000000000001e-10       
                     2.6298098121300001e-19                      10526                                   17466.751103499999              -3.9619483909999998e-09            -7.5145665533000002e-22                1200                                6.9195566633e-18                        24.244895569000001                             24.607140983200001                               37.007098883799998                     -1.3582761058100001e-17                     6.9261853760100002e-18                  1673                          43                          37                   -0.0084526490200999994 -0.047224176841100002 -0.52915664757100001        1.3450417194899999e-13              3.0399999999999998e-10       
                     2.9932505049500002e-19                      10803                                   16998.619634400002               5.9062578163500002e-09             6.0851579297499997e-22                1200                                6.86495932274e-18                       24.506258905399999                             24.6847235784                                    37.007098883799998                     -1.3381931889300001e-17                     6.8162976170299999e-18                  1717                          43                          38                   -0.0077569150018300002 -0.0471984954867     -0.532289464135             1.35436560046e-13                3.1200000000000001e-10       