# ODT 1.0
# Table Start
# Title: mmArchive Data Table, Fri Apr 16 16:36:21 CEST 2021
# Columns: {Oxs_CGEvolve:evolver:Max mxHxm} {Oxs_CGEvolve:evolver:Total energy} {Oxs_CGEvolve:evolver:Delta E} {Oxs_CGEvolve:evolver:Bracket count} {Oxs_CGEvolve:evolver:Line min count} {Oxs_CGEvolve:evolver:Conjugate cycle count} {Oxs_CGEvolve:evolver:Cycle count} {Oxs_CGEvolve:evolver:Cycle sub count} {Oxs_CGEvolve:evolver:Energy calc count} Oxs_UniformExchange:exchange:Energy {Oxs_UniformExchange:exchange:Max Spin Ang} {Oxs_UniformExchange:exchange:Stage Max Spin Ang} {Oxs_UniformExchange:exchange:Run Max Spin Ang} Oxs_DMExchange6Ngbr:dmi:Energy Oxs_UniaxialAnisotropy:uniaxialanisotropy:Energy Oxs_MinDriver::Iteration {Oxs_MinDriver::Stage iteration} Oxs_MinDriver::Stage Oxs_MinDriver::mx    Oxs_MinDriver::my    Oxs_MinDriver::mz   
# Units:                 A/m                                 J                                J                                 {}                                   {}                                        {}                                      {}                                   {}                                      {}                                     J                                      deg                                            deg                                              deg                                     J                                       J                                    {}                           {}                         {}                 {}                   {}                   {}           
                  0.096265321597499995              -1.1303029089399999e-18               0                                 563                                  531                                       10                                      549                                  538                                     1095                                  1.24779416318e-18                       24.088575868700001                             180                                              180                                    -3.6783964071899997e-18                     1.30029933508e-18                    1085                         1085                       0                    0.00026643215125099999 -9.6494487251699992e-16  0.91325999451399997
# Table End
