# OOMMF OVF 2.0
#
# Segment count: 1
#
# Begin: Segment
# Begin: Header
#
# Title: Oxs_MinDriver::Magnetization
# Desc: Oxs vector field output
# Desc:  MIF source file: C:/Users/Victor H. González/Documents/GitHub/Intro-to-magnetism-in-python/domain_wall_conversion_thin_film/drive-33/domain_wall_conversion_thin_film.mif
# Desc:  Iteration: 1085, State id: 2213
# Desc:  Stage: 0, Stage iteration: 1085
# Desc:  Stage simulation time: -1 s
# Desc:  Total simulation time: -2 s
# meshunit: m
# meshtype: rectangular
# xbase: 1.0000000000000001e-09
# ybase: 1.0000000000000001e-09
# zbase: 1.0000000000000001e-09
# xnodes: 225
# ynodes: 25
# znodes: 1
# xstepsize: 2.0000000000000001e-09
# ystepsize: 2.0000000000000001e-09
# zstepsize: 2.0000000000000001e-09
# xmin: 0
# ymin: 0
# zmin: 0
# xmax: 4.5000000000000003e-07
# ymax: 5.0000000000000004e-08
# zmax: 2.0000000000000001e-09
# valuedim: 3
# valuelabels: Magnetization_x Magnetization_y Magnetization_z
# valueunits: A/m A/m A/m
#
# End: Header
#
# Begin: Data Text
 0.000000000000000 -0.000000000000000 -0.000000000000000
 -0.000000000000000 0.000000000000000 0.000000000000000
 0.000000000000000 0.000000000000000 -0.000000000000000
 0.000000000000000 0.000000000000000 0.000000000000000
 0.000000000000000 0.000000000000000 0.000000000000000
 0.000000000000000 -0.000000000000000 0.000000000000000
 -0.000000000000000 -0.000000000000000 0.000000000000000
 -0.000000000000000 -0.000000000000000 -0.000000000000000
 -0.000000000000000 0.000000000000000 -0.000000000000000
 -0.000000000000000 -0.000000000000000 -0.000000000000000
 0.000000000000000 -0.000000000000000 -0.000000000000000
 0.000000000000000 0.000000000000000 0.000000000000000
 0.000000000000000 0.000000000000000 -0.000000000000000
 0.000000000000000 0.000000000000000 0.000000000000000
 0.000000000000000 0.000000000000000 -0.000000000000000
 -0.000000000000000 0.000000000000000 -0.000000000000000
 0.000000000000000 -0.000000000000000 -0.000000000000000
 -0.000000000000000 -0.000000000000000 0.000000000000000
 0.000000000000000 -0.000000000000000 -0.000000000000000
 -0.000000000000000 -0.000000000000000 -0.000000000000000
 0.000000000000000 -0.000000000000000 0.000000000000000
 0.000000000000000 -0.000000000000000 0.000000000000000
 0.000000000000000 0.000000000000000 -0.000000000000000
 -0.000000000000000 -0.000000000000000 0.000000000000000
 0.000000000000000 -0.000000000000000 0.000000000000000
 270968.873564174 228123.176578229 459277.351789984
 199406.512636364 229632.083703053 493868.554225107
 143749.113149579 233526.566595624 511078.795454056
 102371.295827768 238414.430079012 518727.941526812
 72308.9793752076 243490.917376973 521424.572355999
 50749.4627099705 248287.542573293 521706.611264957
 35419.1428374442 252560.673527419 520920.906192137
 24589.9992284583 256215.063345001 519758.764479312
 16984.6392999693 259247.032512005 518558.095261823
 11672.3913043389 261704.114522869 517469.527337639
 7981.41659148160 263658.081539220 516546.912708082
 5430.18449496947 265188.014142139 515796.306938795
 3675.75674081914 266370.447239853 515202.167745462
 2475.37637311799 267274.254260331 514741.047053171
 1658.20871137578 267958.546621213 514388.440418831
 1104.72168634620 268472.374138146 514121.934870146
 731.742413359143 268855.418549694 513922.395376490
 481.711166070489 269139.149807992 513774.158551191
 315.002482036128 269348.127825973 513664.761113783
 204.476231252289 269501.269062400 513584.485905899
 131.638316559419 269612.981581957 513525.873577798
 83.9483636973796 269694.137476021 513483.266683285
 52.9462280459780 269752.873721889 513452.416797779
 32.9527137021557 269795.238150829 513430.159208880
 20.1753963598650 269825.697570989 513414.153021986
 12.0961529165287 269847.533835365 513402.676596699
 7.05089044626613 269863.145526844 513394.470788927
 3.94955248788833 269874.279226177 513388.618296659
 2.07938779466393 269882.200170872 513384.454406837
 0.981093393592384 269887.823212268 513381.498381838
 0.358980063395672 269891.806173857 513379.404495432
 0.0254237232346559 269894.622290492 513377.924007911
 -0.136999692733130 269896.608753703 513376.879673434
 -0.202105294378995 269898.008305504 513376.143887385
 -0.214178657314362 269898.992365718 513375.626534728
 -0.199361965276585 269899.683261198 513375.263306935
 -0.173462680127782 269900.167819989 513375.008556817
 -0.144784291124134 269900.506786754 513374.830349358
 -0.116954485741092 269900.743520971 513374.705889191
 -0.0928166144902262 269900.908577880 513374.619112424
 -0.0721194688593139 269901.023561418 513374.558661114
 -0.0554806511867663 269901.103368909 513374.516703198
 -0.0419551704841423 269901.159519769 513374.487182488
 -0.0314493728149302 269901.198189715 513374.466852175
 -0.0231060298734894 269901.225496054 513374.452496156
 -0.0166732732978565 269901.244124340 513374.442702530
 -0.0115984950191255 269901.257011483 513374.435927249
 -0.00803333608183763 269901.265337724 513374.431549815
 -0.00541172081452245 269901.270988758 513374.428578842
 -0.00349667067678390 269901.274330940 513374.426821725
 -0.00253365863974398 269901.276280202 513374.425796921
 -0.00134954633816115 269901.277636114 513374.425084064
 -0.000910050424276483 269901.278228216 513374.424772772
 -0.000322319276973106 269901.278993857 513374.424370245
 2.53472780471873e-05 269901.279053088 513374.424339105
 0.000464709956964151 269901.279511550 513374.424098073
 0.000853260742753993 269901.279691541 513374.424003445
 0.00132564867586094 269901.279936981 513374.423874407
 0.00216250410559399 269901.280105606 513374.423785754
 0.00275642647368117 269901.280261400 513374.423703848
 0.00341686066844036 269901.280124460 513374.423775842
 0.00385889759979215 269901.279932691 513374.423876662
 0.00429130372905321 269901.279861970 513374.423913843
 0.00466118065735904 269901.279401233 513374.424156071
 0.00509484105875555 269901.279046717 513374.424342454
 0.00530853310330320 269901.278368570 513374.424698983
 0.00541037155456411 269901.277954877 513374.424916478
 0.00566015121979344 269901.277465241 513374.425173899
 0.00580379753387275 269901.276819738 513374.425513265
 0.00601554656031282 269901.276020428 513374.425933494
 0.00611700001086587 269901.275160213 513374.426385744
 0.00580595302844947 269901.274582796 513374.426689314
 0.00539086176199037 269901.274218047 513374.426881077
 0.00472213398326577 269901.274164366 513374.426909299
 0.00407445626896303 269901.274481093 513374.426742783
 0.00373703913252233 269901.275136157 513374.426398390
 0.00353225003348503 269901.276007620 513374.425940228
 0.00378094536136011 269901.277298974 513374.425261312
 0.00366478652998572 269901.278716486 513374.424516070
 0.00358797964411281 269901.279976710 513374.423853520
 0.00325447816342350 269901.280869541 513374.423384123
 0.00293388660297304 269901.281644560 513374.422976665
 0.00343840278742049 269901.282186638 513374.422691673
 0.00322058015050881 269901.282484690 513374.422534976
 0.00359689417069289 269901.282960543 513374.422284801
 0.00398449936677452 269901.283232803 513374.422141663
 0.00395568520651990 269901.283807042 513374.421839763
 0.00409237342601744 269901.284349790 513374.421554419
 0.00339706693689999 269901.284935837 513374.421246310
 0.00313084764856717 269901.285616004 513374.420888720
 0.00259549522212092 269901.285736067 513374.420825598
 0.00238140799701885 269901.286209237 513374.420576834
 0.00260607879513927 269901.286163645 513374.420600803
 0.00237969100338252 269901.286143943 513374.420611161
 0.00243714824924810 269901.286276214 513374.420541621
 0.00159403088625331 269901.285859999 513374.420760442
 0.000751401289962359 269901.286045974 513374.420662667
 0.000227689408908968 269901.285644591 513374.420873691
 -0.000508436269769436 269901.285310069 513374.421049562
 -0.000514301415800999 269901.284979812 513374.421223191
 -0.000489088582235251 269901.284373865 513374.421541761
 -0.00118348916672858 269901.284434123 513374.421510081
 -0.00195966265029038 269901.283981608 513374.421747987
 -0.00248810712171634 269901.283787114 513374.421850239
 -0.00322561483412291 269901.283317545 513374.422097110
 -0.00353213311049784 269901.282671201 513374.422436919
 -0.00376625666799162 269901.282620423 513374.422463615
 -0.00426265105154900 269901.282304202 513374.422629865
 -0.00451828805962733 269901.282492739 513374.422530744
 -0.00499702479076912 269901.282394383 513374.422582453
 -0.00491085809812714 269901.282202242 513374.422683469
 -0.00464990319829130 269901.282276360 513374.422644502
 -0.00437737800789116 269901.281928746 513374.422827257
 -0.00371835264239670 269901.282040063 513374.422768733
 -0.00383586500356417 269901.281839991 513374.422873919
 -0.00345723245542117 269901.281485689 513374.423060190
 -0.00259924813451262 269901.281444001 513374.423082107
 -0.00249057793300831 269901.280835236 513374.423402159
 -0.00209661645256666 269901.280011915 513374.423835011
 -0.00170255896784606 269901.278457848 513374.424652046
 -0.00178987767113625 269901.276458261 513374.425703308
 -0.00213424555847118 269901.275359645 513374.426280894
 -0.00247093329830874 269901.275495227 513374.426209613
 -0.00250768657999518 269901.276916633 513374.425462324
 -0.00229668997912982 269901.278129218 513374.424824820
 -0.00181444044381119 269901.278508056 513374.424625650
 -0.00182738430523880 269901.278920332 513374.424408900
 -0.00163338701875158 269901.279622528 513374.424039727
 -0.000299660316243262 269901.280482978 513374.423587355
 0.00109110650035525 269901.280090126 513374.423793893
 0.00228123887387882 269901.279003703 513374.424365069
 0.00241826502349899 269901.278642683 513374.424554871
 0.00124008173609971 269901.278882506 513374.424428786
 2.06005615037810e-05 269901.280741696 513374.423451336
 -0.000712251316089919 269901.282714065 513374.422414384
 -1.15585595226048e-05 269901.283398144 513374.422054736
 0.000926371990410207 269901.283784926 513374.421851390
 0.00130707410299271 269901.282951097 513374.422289767
 0.00309935753618541 269901.281447814 513374.423080102
 0.00465284133063293 269901.279691773 513374.424003323
 0.00479035912229675 269901.277895209 513374.424947848
 0.00491240372621566 269901.278105634 513374.424837219
 0.00417211091502767 269901.279016382 513374.424358403
 0.00353624580497526 269901.279639670 513374.424030716
 0.00380510944614021 269901.280582109 513374.423535238
 0.00309972611043131 269901.281081962 513374.423272445
 0.00241383544832034 269901.281882208 513374.422851724
 0.00294706005345177 269901.282331648 513374.422615436
 0.00366195400705275 269901.280881120 513374.423378036
 0.00422275798566752 269901.278069793 513374.424856062
 0.00412812893444691 269901.274050023 513374.426969414
 0.00312937100533714 269901.269981350 513374.429108477
 0.00247622318355022 269901.266696093 513374.430835666
 0.00323777646173750 269901.262728755 513374.432921453
 0.00562657754798411 269901.257032822 513374.435916030
 0.00957841368443543 269901.248101430 513374.440611617
 0.0151449286326631 269901.233712084 513374.448176664
 0.0221430537655757 269901.212224912 513374.459473319
 0.0304763258626654 269901.181590113 513374.475579240
 0.0410046245624326 269901.138567155 513374.498198101
 0.0546936186623805 269901.077026112 513374.530552638
 0.0721317316536598 269900.987716771 513374.577506041
 0.0931881698637742 269900.859110003 513374.645119598
 0.116866053085331 269900.675083986 513374.741869129
 0.142750236754635 269900.412038074 513374.880162301
 0.168242421772446 269900.035033276 513375.078367667
 0.184638283916021 269899.494139163 513375.362735095
 0.179103897323347 269898.721440690 513375.768969133
 0.130667296704298 269897.621310610 513376.347342627
 -0.00105315522512282 269896.056657408 513377.169925564
 -0.281164604386678 269893.835711339 513378.337529879
 -0.810320485617849 269890.690904728 513379.990808282
 -1.75331157044341 269886.246371567 513382.327331582
 -3.37508252372526 269879.975729571 513385.623765230
 -6.08976299320546 269871.147631245 513390.264456884
 -10.5432724497683 269858.751735805 513396.780278599
 -17.7378650455469 269841.392614087 513405.904248732
 -29.2170505672394 269817.148085792 513418.645692980
 -47.3479851506900 269783.388925797 513436.384392342
 -75.7408659091245 269736.538246838 513460.995790268
 -119.871170896769 269671.754641581 513495.014950908
 -188.012843987095 269582.532186282 513541.841519465
 -292.621761515219 269460.197737982 513605.993157705
 -452.373009436205 269293.294837787 513693.407310303
 -695.164976017773 269066.861215770 513811.775790658
 -1062.53087188407 268761.618881469 513970.877817371
 -1616.08460949034 268353.143392391 514182.826144513
 -2446.91371010303 267811.148838210 514462.050273151
 -3689.21524397285 267099.119911532 514824.678733808
 -5539.99859950886 266174.697205938 515286.657097624
 -8287.41203912098 264991.456199120 515859.328638306
 -12351.2017849429 263503.003495102 516540.041974994
 -18339.9298787455 261670.675197627 517293.054963684
 -27130.5332153112 259476.449107404 518011.492658286
 -39975.3800833114 256942.737158583 518442.281077315
 -58636.3483665810 254160.195022641 518038.969495815
 -85523.3855634830 251323.275859840 515676.605570621
 -123745.687539956 248772.481598533 509116.152969606
 -176790.849459289 247054.730484200 494073.836276363
 -247084.416884314 247103.634015929 462913.690647685
 -0.000000000000000 -0.000000000000000 -0.000000000000000
 -0.000000000000000 -0.000000000000000 -0.000000000000000
 0.000000000000000 0.000000000000000 -0.000000000000000
 0.000000000000000 -0.000000000000000 0.000000000000000
 -0.000000000000000 -0.000000000000000 -0.000000000000000
 -0.000000000000000 -0.000000000000000 -0.000000000000000
 0.000000000000000 0.000000000000000 0.000000000000000
 0.000000000000000 0.000000000000000 -0.000000000000000
 0.000000000000000 0.000000000000000 -0.000000000000000
 0.000000000000000 0.000000000000000 -0.000000000000000
 -0.000000000000000 0.000000000000000 0.000000000000000
 -0.000000000000000 -0.000000000000000 0.000000000000000
 0.000000000000000 -0.000000000000000 -0.000000000000000
 -0.000000000000000 -0.000000000000000 -0.000000000000000
 -0.000000000000000 0.000000000000000 0.000000000000000
 -0.000000000000000 0.000000000000000 0.000000000000000
 -0.000000000000000 -0.000000000000000 -0.000000000000000
 0.000000000000000 0.000000000000000 -0.000000000000000
 0.000000000000000 -0.000000000000000 0.000000000000000
 -0.000000000000000 -0.000000000000000 -0.000000000000000
 -0.000000000000000 0.000000000000000 0.000000000000000
 0.000000000000000 -0.000000000000000 -0.000000000000000
 0.000000000000000 0.000000000000000 -0.000000000000000
 0.000000000000000 -0.000000000000000 0.000000000000000
 -0.000000000000000 0.000000000000000 0.000000000000000
 274623.802224172 155260.131792877 486699.146010754
 201439.395021740 155601.507145325 521162.490119328
 145272.912411409 158550.965974537 538662.577229984
 103613.212345451 162905.035020131 546924.356554493
 73310.2269563726 167707.810170874 550363.244622400
 51535.9163865054 172362.951272258 551393.745295429
 36024.7649427843 176556.523514200 551298.476612621
 25051.1020961313 180160.213626860 550740.174410487
 17333.9053432113 183156.060792128 550048.537058924
 11936.5274031502 185585.677289443 549377.352735415
 8181.16409354026 187518.293110628 548789.539170483
 5581.26928479605 189031.685779575 548302.718582083
 3790.00604878332 190201.504383639 547913.335833643
 2561.68762979093 191095.883843417 547609.168051988
 1723.30322856143 191773.279603330 547375.592674870
 1153.70044874716 192282.169357542 547198.534649383
 768.492110851565 192661.752155252 547065.680404413
 509.199022924740 192943.107119656 546966.816298181
 335.494006168504 193150.489314925 546893.751949295
 219.700178398394 193302.583166622 546840.070836934
 142.909917771449 193413.626000763 546800.831065565
 92.2654986615050 193494.366718172 546772.275756015
 59.0628767797798 193552.855891016 546751.578404680
 37.4365491418928 193595.081577398 546736.630369271
 23.4523230920800 193625.469793490 546725.869972547
 14.4836605404945 193647.275825710 546718.147088154
 8.78584813811516 193662.880718894 546712.619713930
 5.20665897030244 193674.020166609 546708.673687728
 2.98814010981950 193681.952738976 546705.863489946
 1.63642596853523 193687.589409223 546703.866554981
 0.830464059460846 193691.585888475 546702.450657867
 0.363787206093278 193694.413815768 546701.448741847
 0.105090817248684 193696.411117066 546700.741100977
 -0.0290071516293548 193697.819095724 546700.242251235
 -0.0905794977495356 193698.810016858 546699.891163374
 -0.111592011905820 193699.506271577 546699.644475954
 -0.111275667831217 193699.995074138 546699.471289543
 -0.100477100834205 193700.337220953 546699.350064072
 -0.0858039033608636 193700.576796263 546699.265180398
 -0.0706916402098167 193700.743642174 546699.206065332
 -0.0565691831430639 193700.860254238 546699.164748552
 -0.0444432699553074 193700.941387311 546699.136002306
 -0.0342844333976682 193700.998243127 546699.115857722
 -0.0260567351446059 193701.037560223 546699.101927278
 -0.0192633070197529 193701.064958103 546699.092219931
 -0.0141651921652041 193701.083943229 546699.085493307
 -0.0100097149279819 193701.096852231 546699.080919515
 -0.00698302855467885 193701.105547532 546699.077838681
 -0.00480951388985671 193701.111077542 546699.075879341
 -0.00320148598359917 193701.114671088 546699.074606111
 -0.00223540458913967 193701.116510046 546699.073954549
 -0.00122293037494221 193701.117961348 546699.073440338
 -0.000798099473484534 193701.118531450 546699.073238345
 -0.000155908491051292 193701.119266632 546699.072977862
 0.000148463143324693 193701.119616743 546699.072853814
 0.000708879436141988 193701.119833541 546699.072777000
 0.00120805798352694 193701.120146084 546699.072666263
 0.00155387615629043 193701.120284310 546699.072617288
 0.00211986969118738 193701.120452653 546699.072557643
 0.00244045243468059 193701.120415692 546699.072570739
 0.00300654824015566 193701.120440643 546699.072561898
 0.00345083263394776 193701.120286470 546699.072616523
 0.00371821354302030 193701.120336165 546699.072598916
 0.00400855052772845 193701.119966341 546699.072729948
 0.00448100372125575 193701.119657743 546699.072839288
 0.00476381305629972 193701.119050427 546699.073054466
 0.00536960554698329 193701.118461909 546699.073262984
 0.00553219773273041 193701.117964720 546699.073439143
 0.00578393491275784 193701.117258178 546699.073689478
 0.00601279132579484 193701.116609517 546699.073919305
 0.00605211752625626 193701.115810878 546699.074202272
 0.00589560158569866 193701.115233848 546699.074406719
 0.00530111861469187 193701.114901036 546699.074524638
 0.00475315972698754 193701.115132174 546699.074442743
 0.00388673955354781 193701.115433388 546699.074336020
 0.00370636887764578 193701.116083824 546699.074105564
 0.00351737266166336 193701.116963335 546699.073793944
 0.00365165236870373 193701.118010171 546699.073423039
 0.00379665549637775 193701.119478332 546699.072902855
 0.00382177580209822 193701.120678561 546699.072477601
 0.00390703641364060 193701.121497696 546699.072187373
 0.00364989145108218 193701.122005403 546699.072007487
 0.00376648362841564 193701.122332357 546699.071891644
 0.00395022116543919 193701.122959544 546699.071669425
 0.00421439511275561 193701.123345230 546699.071532773
 0.00412755077469087 193701.123678587 546699.071414661
 0.00390220333566881 193701.124392913 546699.071161568
 0.00349181098077179 193701.124777108 546699.071025444
 0.00309784055141313 193701.125517254 546699.070763203
 0.00260660561209785 193701.125988364 546699.070596283
 0.00214880180365927 193701.126417639 546699.070444187
 0.00220171610296311 193701.126727461 546699.070334414
 0.00220053420597062 193701.126697571 546699.070345004
 0.00231434753955397 193701.126889469 546699.070277012
 0.00204344892900402 193701.126685159 546699.070349401
 0.00155741766797516 193701.126973651 546699.070247186
 0.000786594993558810 193701.126753211 546699.070325290
 5.01640197055416e-05 193701.126260931 546699.070499710
 -0.000265164561767335 193701.126041051 546699.070577616
 -0.000597739593092749 193701.125509692 546699.070765882
 -0.000773981842247181 193701.125385901 546699.070809742
 -0.00147104047202346 193701.125150494 546699.070893149
 -0.00226996868814758 193701.124852708 546699.070998658
 -0.00259482540255360 193701.124549111 546699.071106226
 -0.00281686228918033 193701.124096716 546699.071266514
 -0.00321449591560227 193701.123655413 546699.071422872
 -0.00351985370801392 193701.123289605 546699.071552482
 -0.00386215425990179 193701.122911106 546699.071686587
 -0.00458644591043160 193701.122860513 546699.071704513
 -0.00462906737755640 193701.122771486 546699.071736056
 -0.00453662113701686 193701.122630030 546699.071786176
 -0.00435704033432847 193701.122920059 546699.071683415
 -0.00375967980540917 193701.122524992 546699.071823392
 -0.00385626664460789 193701.122562555 546699.071810083
 -0.00369876430145681 193701.122649288 546699.071779352
 -0.00338416654582795 193701.121999140 546699.072009707
 -0.00342291298028727 193701.121769013 546699.072091243
 -0.00293827346081040 193701.121251508 546699.072274600
 -0.00243099279596741 193701.120509632 546699.072537454
 -0.00199201344940266 193701.118917401 546699.073101598
 -0.00162536865317192 193701.117083104 546699.073751509
 -0.00190726005777349 193701.116119274 546699.074093004
 -0.00245829282258701 193701.116100634 546699.074099608
 -0.00241773462529073 193701.117703106 546699.073531836
 -0.00203866565341152 193701.118724000 546699.073170122
 -0.00205292216249682 193701.118921262 546699.073100231
 -0.00178263593017444 193701.119700779 546699.072824040
 -0.00134485116292140 193701.120374307 546699.072585402
 -0.000722690334896400 193701.120812201 546699.072430251
 0.000979748766384032 193701.120578850 546699.072512930
 0.00238652679993803 193701.119547012 546699.072878521
 0.00239111075096204 193701.118761989 546699.073156662
 0.00124833359148333 193701.119500995 546699.072894825
 8.70106748186358e-07 193701.121277709 546699.072265317
 -0.000151319962578814 193701.122958707 546699.071669722
 0.000166344380601890 193701.124214360 546699.071224831
 0.000860078830965368 193701.124295160 546699.071196203
 0.00187538877166183 193701.123683127 546699.071413053
 0.00308368056230773 193701.122224234 546699.071929953
 0.00462718194237311 193701.119810206 546699.072785269
 0.00488325075448303 193701.118578083 546699.073221822
 0.00431984112045779 193701.118806886 546699.073140755
 0.00399290017577930 193701.119478991 546699.072902621
 0.00330944807592373 193701.120332950 546699.072600055
 0.00314534907942745 193701.121081131 546699.072334967
 0.00294008285726457 193701.121716669 546699.072109789
 0.00239531559678171 193701.122635255 546699.071784324
 0.00280872733266345 193701.123125495 546699.071610627
 0.00336835883536827 193701.121328882 546699.072247186
 0.00382452522346291 193701.118048170 546699.073409576
 0.00369261630492390 193701.114622417 546699.074623355
 0.00236175403367779 193701.110549171 546699.076066548
 0.00190959700334838 193701.106928659 546699.077349333
 0.00271778746985033 193701.103286530 546699.078639777
 0.00440429013748383 193701.097115965 546699.080826071
 0.00781385695921264 193701.087710499 546699.084158525
 0.0123533433628397 193701.073269035 546699.089275283
 0.0178666740185430 193701.051394068 546699.097025807
 0.0245194413770447 193701.020590132 546699.107939953
 0.0324949624952749 193700.977083504 546699.123354789
 0.0429226570976031 193700.914681505 546699.145464438
 0.0553199910134108 193700.824567464 546699.177392724
 0.0689712101423393 193700.694172484 546699.223592912
 0.0832072084724646 193700.507712339 546699.289657463
 0.0953089122388397 193700.242487660 546699.383628894
 0.101181084758075 193699.862879294 546699.518127218
 0.0910357662663926 193699.318608460 546699.710966276
 0.0480252225436456 193698.541778077 546699.986201796
 -0.0522887663223991 193697.436613894 546700.377765741
 -0.254624873373414 193695.866751424 546700.933969707
 -0.631838980885026 193693.641570136 546701.722344919
 -1.29396190097945 193690.494992685 546702.837149959
 -2.41849870033384 193686.053537970 546704.410681894
 -4.28626909597762 193679.795264380 546706.627806885
 -7.33067852229374 193670.997880695 546709.744312425
 -12.2243269921237 193658.664651231 546714.113093917
 -20.0024849236306 193641.419677235 546720.221123461
 -32.2474257055679 193617.373723475 546728.736717330
 -51.3717769654937 193583.950054358 546740.570693535
 -81.0337711813487 193537.651380188 546756.957826573
 -126.755809308476 193473.758602095 546779.561309074
 -196.848463450282 193385.950840680 546810.602739311
 -303.772140963295 193265.833219567 546853.019953655
 -466.143884295509 193102.366509826 546910.649702658
 -711.688550922232 192881.206243752 546988.421977432
 -1081.56133763760 192583.986651925 547092.531762520
 -1636.66248243069 192187.625967897 547230.516108835
 -2466.82852661039 191663.800440883 547411.090824416
 -3704.16385189114 190978.860774079 547643.455094273
 -5542.30765165057 190094.644126668 547935.497207700
 -8264.15255913215 188970.892190311 548289.800823686
 -12281.5010520376 187570.357365578 548695.294101980
 -18191.3355276643 185868.148358623 549110.286497582
 -26854.5602457223 183867.370403552 549428.450933233
 -39503.3691872597 181623.446145241 549410.964245511
 -57879.9073461917 179279.032973409 548551.679116668
 -84393.2979226177 177108.469858287 545811.653567603
 -122232.344231813 175560.433599853 539108.326941652
 -175236.566303597 175256.139976905 524382.905166178
 -247029.151196772 176804.324382372 494081.804298332
 -0.000000000000000 0.000000000000000 -0.000000000000000
 -0.000000000000000 -0.000000000000000 0.000000000000000
 -0.000000000000000 -0.000000000000000 -0.000000000000000
 0.000000000000000 0.000000000000000 0.000000000000000
 0.000000000000000 -0.000000000000000 -0.000000000000000
 -0.000000000000000 0.000000000000000 0.000000000000000
 0.000000000000000 0.000000000000000 -0.000000000000000
 -0.000000000000000 0.000000000000000 0.000000000000000
 0.000000000000000 0.000000000000000 0.000000000000000
 0.000000000000000 -0.000000000000000 -0.000000000000000
 -0.000000000000000 0.000000000000000 0.000000000000000
 -0.000000000000000 0.000000000000000 0.000000000000000
 -0.000000000000000 0.000000000000000 -0.000000000000000
 -0.000000000000000 -0.000000000000000 0.000000000000000
 -0.000000000000000 0.000000000000000 0.000000000000000
 0.000000000000000 0.000000000000000 -0.000000000000000
 -0.000000000000000 0.000000000000000 -0.000000000000000
 -0.000000000000000 0.000000000000000 0.000000000000000
 0.000000000000000 -0.000000000000000 0.000000000000000
 0.000000000000000 0.000000000000000 -0.000000000000000
 -0.000000000000000 -0.000000000000000 0.000000000000000
 -0.000000000000000 0.000000000000000 -0.000000000000000
 -0.000000000000000 -0.000000000000000 -0.000000000000000
 -0.000000000000000 0.000000000000000 -0.000000000000000
 0.000000000000000 -0.000000000000000 0.000000000000000
 285132.346103477 96172.5222413770 495833.027511539
 210092.072308725 97680.4727095008 531714.064516140
 152133.989542407 101588.577327762 550395.321730147
 108848.114611635 106577.880521947 559636.706559659
 77186.7406218990 111714.031635428 563881.354726264
 54350.2433095232 116480.801652788 565577.823025726
 38044.7405018485 120648.489902644 566035.811238440
 26493.2112989591 124154.558359175 565936.176077927
 18362.1400761531 127024.899385793 565621.345732154
 12670.5314043327 129327.052696571 565255.668768346
 8706.42634487838 131143.680035319 564911.969537817
 5958.25779438947 132558.125143969 564617.430321073
 4061.35167597063 133647.071685786 564377.502787255
 2757.47833103824 134477.344541281 564188.124758382
 1864.84964463263 135105.079105294 564041.789175018
 1256.16738065117 135576.181998705 563930.422054145
 842.725542491679 135927.423979594 563846.632714900
 562.991170610861 136187.771845610 563784.155365039
 374.465872983910 136379.735767085 563737.906697261
 247.918846537868 136520.606900795 563703.878315277
 163.324578241541 136623.539592576 563678.970473689
 107.018248966864 136698.455651163 563660.820680027
 69.7105987569316 136752.784648104 563647.647942774
 45.1107813145795 136792.052717099 563638.121739880
 28.9751897044242 136820.348137101 563631.254896391
 18.4520833143699 136840.678461141 563626.319805787
 11.6328730518601 136855.247050047 563622.782736421
 7.24601106789834 136865.660606819 563620.254155362
 4.44656644094503 136873.086668794 563618.450838850
 2.67773032289277 136878.370639288 563617.167627072
 1.57279572668221 136882.122393542 563616.256478258
 0.892253819870690 136884.780905540 563615.610816136
 0.480594117547809 136886.661160558 563615.154157590
 0.237292034920630 136887.988613530 563614.831754174
 0.0981296267442266 136888.923930738 563614.604588166
 0.0218548067029780 136889.582430642 563614.444653403
 -0.0171296532909860 136890.044778915 563614.332358951
 -0.0337758961796032 136890.369214914 563614.253560184
 -0.0393351002904226 136890.596556726 563614.198343461
 -0.0378080151468552 136890.755245110 563614.159801208
 -0.0334547995804509 136890.866211832 563614.132849570
 -0.0282507794720818 136890.943715189 563614.114025513
 -0.0228563729693308 136890.997670929 563614.100920707
 -0.0180385872135667 136891.035238642 563614.091796233
 -0.0136835674436118 136891.061363370 563614.085451038
 -0.0103252102276340 136891.079311189 563614.081091856
 -0.00737459545721667 136891.091732939 563614.078074851
 -0.00525998283824868 136891.099930022 563614.076083936
 -0.00356526809134488 136891.105480218 563614.074735899
 -0.00260734280108806 136891.108714138 563614.073950442
 -0.00153164064389594 136891.110706191 563614.073466610
 -0.00124132566841189 136891.112135846 563614.073119374
 -0.000620643793275794 136891.112857622 563614.072944068
 -0.000202759918882079 136891.113375809 563614.072818211
 0.000335495972764280 136891.113669811 563614.072746803