# ODT 1.0
# Table Start
# Title: mmArchive Data Table, Thu Apr 29 10:20:29 CEST 2021
# Columns: {Oxs_CGEvolve:evolver:Max mxHxm} {Oxs_CGEvolve:evolver:Total energy} {Oxs_CGEvolve:evolver:Delta E} {Oxs_CGEvolve:evolver:Bracket count} {Oxs_CGEvolve:evolver:Line min count} {Oxs_CGEvolve:evolver:Conjugate cycle count} {Oxs_CGEvolve:evolver:Cycle count} {Oxs_CGEvolve:evolver:Cycle sub count} {Oxs_CGEvolve:evolver:Energy calc count} Oxs_UniformExchange:exchange:Energy {Oxs_UniformExchange:exchange:Max Spin Ang} {Oxs_UniformExchange:exchange:Stage Max Spin Ang} {Oxs_UniformExchange:exchange:Run Max Spin Ang} Oxs_DMExchange6Ngbr:dmi:Energy Oxs_UniaxialAnisotropy:uniaxialanisotropy:Energy Oxs_MinDriver::Iteration {Oxs_MinDriver::Stage iteration} Oxs_MinDriver::Stage Oxs_MinDriver::mx    Oxs_MinDriver::my    Oxs_MinDriver::mz   
# Units:                 A/m                                 J                                J                                 {}                                   {}                                        {}                                      {}                                   {}                                      {}                                     J                                      deg                                            deg                                              deg                                     J                                       J                                    {}                           {}                         {}                 {}                   {}                   {}           
                  0.097311097589299997              -5.9606151460000004e-19               0                                 607                                  578                                       10                                      593                                  582                                     1186                                  9.0350920560400002e-19                     23.930970573900002                             180                                              180                                    -2.3694369967300001e-18                     8.6986627652400002e-19                  1176                         1176                       0                    0.00058385812606600001  9.81375014941e-16    0.87055459912599997
# Table End
