# ODT 1.0
# Table Start
# Title: mmArchive Data Table, Fri Apr 16 16:40:03 CEST 2021
# Columns: {Oxs_CGEvolve:evolver:Max mxHxm} {Oxs_CGEvolve:evolver:Total energy} {Oxs_CGEvolve:evolver:Delta E} {Oxs_CGEvolve:evolver:Bracket count} {Oxs_CGEvolve:evolver:Line min count} {Oxs_CGEvolve:evolver:Conjugate cycle count} {Oxs_CGEvolve:evolver:Cycle count} {Oxs_CGEvolve:evolver:Cycle sub count} {Oxs_CGEvolve:evolver:Energy calc count} Oxs_UniformExchange:exchange:Energy {Oxs_UniformExchange:exchange:Max Spin Ang} {Oxs_UniformExchange:exchange:Stage Max Spin Ang} {Oxs_UniformExchange:exchange:Run Max Spin Ang} Oxs_DMExchange6Ngbr:dmi:Energy Oxs_UniaxialAnisotropy:uniaxialanisotropy:Energy Oxs_MinDriver::Iteration {Oxs_MinDriver::Stage iteration} Oxs_MinDriver::Stage Oxs_MinDriver::mx    Oxs_MinDriver::my    Oxs_MinDriver::mz   
# Units:                 A/m                                 J                                J                                 {}                                   {}                                        {}                                      {}                                   {}                                      {}                                     J                                      deg                                            deg                                              deg                                     J                                       J                                    {}                           {}                         {}                 {}                   {}                   {}           
                  0.098077016928200006              -1.5836068450100001e-18               0                                 673                                  644                                       11                                      658                                  644                                     1318                                  1.33498723874e-18                       24.432380484799999                             180                                              180                                    -4.4072268136899998e-18                     1.4886327299399999e-18                  1307                         1307                       0                    0.000110819694969   -1.46902604375e-06    0.97822795971599996
# Table End
