# OOMMF OVF 2.0
#
# Segment count: 1
#
# Begin: Segment
# Begin: Header
#
# Title: Oxs_TimeDriver::Magnetization
# Desc: Oxs vector field output
# Desc:  MIF source file: C:/Users/Victor H. González/Documents/GitHub/Intro-to-magnetism-in-python/domain_wall_conversion_thin_film/drive-52/domain_wall_conversion_thin_film.mif
# Desc:  Iteration: 91, State id: 681
# Desc:  Stage: 3, Stage iteration: 21
# Desc:  Stage simulation time: 4e-12 s
# Desc:  Total simulation time: 1.6e-11 s
# meshunit: m
# meshtype: rectangular
# xbase: 1.0000000000000001e-09
# ybase: 1.0000000000000001e-09
# zbase: 1.0000000000000001e-09
# xnodes: 125
# ynodes: 25
# znodes: 1
# xstepsize: 2.0000000000000001e-09
# ystepsize: 2.0000000000000001e-09
# zstepsize: 2.0000000000000001e-09
# xmin: 0
# ymin: 0
# zmin: 0
# xmax: 2.5000000000000004e-07
# ymax: 5.0000000000000004e-08
# zmax: 2.0000000000000001e-09
# valuedim: 3
# valuelabels: Magnetization_x Magnetization_y Magnetization_z
# valueunits: A/m A/m A/m
#
# End: Header
#
# Begin: Data Text
 0.000000000000000 -0.000000000000000 -0.000000000000000
 -0.000000000000000 0.000000000000000 0.000000000000000
 0.000000000000000 0.000000000000000 -0.000000000000000
 0.000000000000000 0.000000000000000 0.000000000000000
 0.000000000000000 0.000000000000000 0.000000000000000
 0.000000000000000 -0.000000000000000 0.000000000000000
 -0.000000000000000 -0.000000000000000 0.000000000000000
 -0.000000000000000 -0.000000000000000 -0.000000000000000
 -0.000000000000000 0.000000000000000 -0.000000000000000
 -0.000000000000000 -0.000000000000000 -0.000000000000000
 0.000000000000000 -0.000000000000000 -0.000000000000000
 0.000000000000000 0.000000000000000 0.000000000000000
 0.000000000000000 0.000000000000000 -0.000000000000000
 0.000000000000000 0.000000000000000 0.000000000000000
 0.000000000000000 0.000000000000000 -0.000000000000000
 -0.000000000000000 0.000000000000000 -0.000000000000000
 0.000000000000000 -0.000000000000000 -0.000000000000000
 -0.000000000000000 -0.000000000000000 0.000000000000000
 0.000000000000000 -0.000000000000000 -0.000000000000000
 -0.000000000000000 -0.000000000000000 -0.000000000000000
 0.000000000000000 -0.000000000000000 0.000000000000000
 0.000000000000000 -0.000000000000000 0.000000000000000
 0.000000000000000 0.000000000000000 -0.000000000000000
 -0.000000000000000 -0.000000000000000 0.000000000000000
 0.000000000000000 -0.000000000000000 0.000000000000000
 286046.427450315 223803.362019269 452205.148678986
 215537.390788123 226879.443993122 488333.237723606
 159873.574261893 231083.992927213 507386.074370930
 117601.659080333 235905.028216800 516641.720579730
 86135.3616698877 240948.418216869 520504.139492460
 62773.2056719762 245847.936293852 521553.752617808
 45602.5288698506 250396.352565723 521173.748362728
 32883.8742192375 254389.910578074 520196.524606242
 23626.9570085684 257858.511749468 518990.129791371
 16793.0969433247 260705.388361881 517832.687626161
 11903.3804368435 263094.605425674 516758.684619895
 8330.57484776895 264952.372086548 515878.708659718
 5843.51492816135 266485.313362480 515122.734011405
 4068.32581433346 267609.435614426 514556.740015323
 2882.86041103066 268524.010064824 514088.071379367
 2076.54716357083 269137.940775766 513770.821268450
 1568.02420318510 269621.575485455 513518.984393800
 1252.47874604171 269892.100234447 513377.722079981
 1061.92371518366 270084.255244725 513277.086364593
 958.151212313361 270136.110409547 513250.001265519
 881.329902389625 270147.025027895 513244.394149786
 832.550566285755 270079.902683173 513279.799939763
 763.683854198649 270002.089203573 513320.843734868
 696.068887317492 269897.218950047 513376.086988023
 597.049880704351 269805.476918422 513424.432761300
 495.272914355066 269722.690562046 513468.036883223
 373.523440686502 269667.229594765 513497.269479522
 259.065176225989 269638.249754092 513512.557932894
 145.590620518541 269637.835958005 513512.819921037
 53.0067189728822 269662.810784326 513499.723145188
 -21.1361994442371 269705.265609221 513477.428185428
 -67.5923672032049 269759.137651102 513449.124144745
 -90.6469199458206 269813.726797193 513420.436499118
 -91.0909068961943 269863.510962757 513394.270666611
 -76.1959899344107 269901.320678074 513374.396800622
 -52.1221764822829 269925.781570180 513361.539002491
 -26.0723509036898 269935.938399456 513356.200391734
 -3.55435005209966 269934.945902586 513356.722920753
 11.9607374907221 269926.219932728 513361.311017658
 19.1733019318812 269914.455560848 513367.496352930
 19.1213342211503 269903.294369218 513373.364446401
 14.0490512770162 269895.445374064 513377.491100807
 6.96424422516509 269891.884309324 513379.363371242
 0.420743695252201 269892.235121408 513379.178990534
 -3.83554472469231 269895.109489608 513377.667861470
 -5.30777766433983 269898.792344137 513375.731665418
 -4.47271957304503 269901.840317228 513374.129240429
 -2.43057060194033 269903.457827142 513373.278859589
 -0.323946954861972 269903.604702630 513373.201646152
 1.05744538595955 269902.780568768 513373.634928918
 1.46911230778933 269901.698675603 513374.203724599
 1.12663402916894 269900.926039278 513374.609931063
 0.452791822778421 269900.703039682 513374.727171566
 -0.173124397404260 269900.918919550 513374.613675387
 -0.571253848454790 269901.267893934 513374.430205596
 -0.728602618482058 269901.429795151 513374.345087483
 -0.696500947419693 269901.236380772 513374.446773158
 -0.454708368866522 269900.727089892 513374.714527450
 0.0904152636333493 269900.140784002 513375.022770652
 1.03288454801380 269899.837953187 513375.181978811
 2.29160779457905 269900.206479685 513374.988226902
 3.50628614490204 269901.534838735 513374.289850398
 4.00864943472528 269903.867545585 513373.063442041
 2.97767218958275 269906.856828765 513371.491834082
 -0.307007972363168 269909.661455474 513370.017290548
 -6.11478581114738 269910.968215220 513369.330209482
 -13.9534276552863 269909.174625073 513370.273056898
 -22.3484091348797 269902.757746772 513373.646442078
 -28.8293076915232 269890.755103165 513379.956249477
 -30.1528254588135 269873.284581064 513389.140282725
 -22.7850434679504 269851.957409667 513400.351152016
 -3.58158169008156 269830.096568680 513411.841480998
 29.4363156045294 269812.661430949 513421.003529317
 76.3418600442179 269805.867532145 513424.568965245
 134.741963638482 269816.530523675 513418.953390668
 199.487258931955 269851.217151015 513400.701993043
 262.718584795955 269915.355619767 513366.956259945
 314.208258884821 270012.405620303 513315.889179662
 341.936992983017 270143.286009198 513247.004962762
 332.718518293441 270306.060369206 513161.303126090
 272.733283007791 270496.051343091 513061.216449219
 147.677483671435 270706.211445716 512950.412102444
 -57.6108899116061 270927.891077954 512833.378902971
 -360.440753261327 271151.670135603 512714.971368241
 -782.593104169354 271368.429932715 512599.807631535
 -1354.28977769023 271570.242236204 512491.726207329
 -2120.04840121436 271751.379178586 512393.104275724
 -3147.55958381706 271909.021604003 512304.183897633
 -4540.32917412116 272044.179650034 512221.973103000
 -6456.34738608380 272162.501359000 512138.544177689
 -9134.78277344852 272275.772170276 512037.556857661
 -12935.0873334851 272403.974789765 511887.446646635
 -18392.9362184604 272578.982376270 511627.206336783
 -26300.4602211436 272849.684475986 511137.296108894
 -37817.1694586455 273288.789184132 510179.477635476
 -54616.0038334622 273998.117160560 508273.670297539
 -79049.2648558481 275105.145599378 504448.582702435
 -114259.853334479 276733.333165490 496752.803948908
 -163982.210659069 278926.826753142 481362.295890308
 -231318.607499190 281584.693603068 451222.519554491
 -0.000000000000000 -0.000000000000000 -0.000000000000000
 -0.000000000000000 -0.000000000000000 -0.000000000000000
 0.000000000000000 0.000000000000000 -0.000000000000000
 0.000000000000000 -0.000000000000000 0.000000000000000
 -0.000000000000000 -0.000000000000000 -0.000000000000000
 -0.000000000000000 -0.000000000000000 -0.000000000000000
 0.000000000000000 0.000000000000000 0.000000000000000
 0.000000000000000 0.000000000000000 -0.000000000000000
 0.000000000000000 0.000000000000000 -0.000000000000000
 0.000000000000000 0.000000000000000 -0.000000000000000
 -0.000000000000000 0.000000000000000 0.000000000000000
 -0.000000000000000 -0.000000000000000 0.000000000000000
 0.000000000000000 -0.000000000000000 -0.000000000000000
 -0.000000000000000 -0.000000000000000 -0.000000000000000
 -0.000000000000000 0.000000000000000 0.000000000000000
 -0.000000000000000 0.000000000000000 0.000000000000000
 -0.000000000000000 -0.000000000000000 -0.000000000000000
 0.000000000000000 0.000000000000000 -0.000000000000000
 0.000000000000000 -0.000000000000000 0.000000000000000
 -0.000000000000000 -0.000000000000000 -0.000000000000000
 -0.000000000000000 0.000000000000000 0.000000000000000
 0.000000000000000 -0.000000000000000 -0.000000000000000
 0.000000000000000 0.000000000000000 -0.000000000000000
 0.000000000000000 -0.000000000000000 0.000000000000000
 -0.000000000000000 0.000000000000000 0.000000000000000
 291651.471008418 145947.486372309 479623.551006652
 219707.182299163 148311.251588981 515880.341453589
 163518.794246702 152201.717447552 535253.436359002
 121008.200931820 157234.051771619 545008.686417680
 88985.6740732024 162712.127428670 549551.010732738
 65304.8763156315 168158.571575238 551233.133923547
 47489.8788336769 173083.927830439 551531.200690542
 34526.3492073361 177514.895260805 551086.556877373
 24737.6858182369 181126.982882281 550437.156242491
 17782.4190428959 184279.299323789 549658.917342124
 12519.9660567860 186643.551305461 549005.860812088
 8902.66931313835 188728.158935916 548363.405511126
 6179.96413944365 190153.321129326 547908.315785335
 4384.41599248411 191458.661508138 547470.873955790
 3066.27896404215 192242.151988200 547205.220125192
 2234.29594214198 193002.033992555 546941.699632035
 1665.37897068152 193365.368626399 546815.380845181
 1311.60114327900 193747.403299132 546681.098463523
 1107.63098115023 193845.926143659 546646.622665060
 958.614699094755 193975.404034179 546600.973002825
 895.231700455316 193923.106979214 546619.636621052
 803.596198278604 193903.640066793 546626.684860882
 760.089139971992 193789.412266656 546667.253416411
 659.367767256820 193709.205934416 546695.810090406
 587.732950580387 193600.664601468 546734.338811683
 465.343112239137 193527.458797301 546760.373607349
 367.255458479491 193467.023999877 546781.835605445
 242.885973256785 193439.343751615 546791.698268499
 146.483965544392 193439.416557987 546791.706835568
 50.2876162961028 193462.183043904 546783.669473625
 -14.2001777104333 193506.618225060 546767.947580558
 -62.3089092136489 193557.616696095 546749.892671711
 -82.1569840920873 193613.986753413 546729.930938191
 -84.5821496734698 193661.622225608 546713.059038108
 -70.5084120417907 193700.719650738 546699.210018956
 -48.7322199866382 193724.130055763 546690.917300908
 -24.6742463381434 193735.228801413 546686.985863434
 -3.72185788516768 193734.016855717 546687.415896046
 10.6140403472998 193725.947726099 546690.275261017
 17.5737420256773 193714.282061028 546694.408803259
 17.5761296820369 193703.435449668 546698.252042272
 13.1151240041793 193695.613272921 546701.023619694
 6.58936338769074 193692.044966238 546702.287971595
 0.614992743612220 193692.277228386 546702.205722369
 -3.37725522550408 193695.009590023 546701.237650432
 -4.78620939473317 193698.579062542 546699.972970774
 -4.10531491523588 193701.555434646 546698.918423427
 -2.27804385466033 193703.174986596 546698.344605984
 -0.367780834405087 193703.355755740 546698.280561435
 0.911572267082642 193702.592712730 546698.550917720
 1.32347059221048 193701.552137727 546698.919605374
 1.04410377651742 193700.807891745 546699.183300099
 0.453940312910999 193700.585516969 546699.262090391
 -0.124339292119634 193700.800738274 546699.185835626
 -0.513339734282894 193701.141511998 546699.065095857
 -0.711434083577624 193701.298448165 546699.009491502
 -0.728197347194823 193701.080688282 546699.086646083
 -0.538008942666731 193700.525384897 546699.283395657
 -0.00512218699817274 193699.864325436 546699.517614848
 0.958390876779349 193699.485581623 546699.651805721
 2.29737436760226 193699.816281766 546699.534632262
 3.62836230883362 193701.198691700 546699.044824695
 4.27973063897536 193703.718455119 546698.152034872
 3.37619509975955 193707.032042453 546696.977974001
 0.154698346437722 193710.255434006 546695.835853601
 -5.72643609116307 193711.964226070 546695.230345835
 -13.8177692834358 193710.406360377 546695.782201369
 -22.6738811009565 193703.873909072 546698.096501637
 -29.8013273794522 193691.252569480 546702.567937949
 -31.8921808735430 193672.561558599 546709.189498603
 -25.3011516692867 193649.436846572 546717.381257316
 -6.74016451565929 193625.355280646 546725.910989239
 25.9236922601664 193605.580933018 546732.913184812
 72.9164550008450 193596.756881938 546736.033573777
 131.965589628343 193606.197606971 546732.679500004
 198.015805986755 193641.001362792 546720.333791378
 263.249900406240 193707.050434446 546696.908086626
 317.466938254255 193808.191228638 546661.032292797
 348.635209027211 193945.526146820 546612.304417970
 343.593683143572 194117.219834473 546551.357977560
 288.539775895097 194318.471059723 546479.870214640
 169.308243292015 194542.149306325 546400.332611534
 -29.1027331671899 194779.405861033 546315.826427767
 -323.606304478153 195020.919971443 546229.563510116
 -735.529658088969 195257.781837333 546144.539136012
 -1294.22777394594 195482.941679798 546062.949197875
 -2043.19156049609 195692.006843197 545985.772549000
 -3048.34484736329 195884.680569245 545911.988796707
 -4410.96864952055 196065.517647341 545837.756247452
 -6285.45549975154 196245.729517887 545754.621322763
 -8906.21145548398 196444.760943829 545646.529628140
 -12625.4288198301 196693.887920554 545483.375550357
 -17969.1615004810 197040.761597801 545208.260671028
 -25716.3186885063 197557.498107408 544710.662549075
 -37011.4344022796 198350.731597080 543771.221193609
 -53515.6412930748 199573.709280247 541946.870736527
 -77594.3795208593 201430.333589484 538335.335062451
 -112495.168538874 204146.781652525 531101.617956797
 -162356.687043479 207835.532016042 516570.128640705
 -231606.440600392 212053.238098706 487639.088757526
 -0.000000000000000 0.000000000000000 -0.000000000000000
 -0.000000000000000 -0.000000000000000 0.000000000000000
 -0.000000000000000 -0.000000000000000 -0.000000000000000
 0.000000000000000 0.000000000000000 0.000000000000000
 0.000000000000000 -0.000000000000000 -0.000000000000000
 -0.000000000000000 0.000000000000000 0.000000000000000
 0.000000000000000 0.000000000000000 -0.000000000000000
 -0.000000000000000 0.000000000000000 0.000000000000000
 0.000000000000000 0.000000000000000 0.000000000000000
 0.000000000000000 -0.000000000000000 -0.000000000000000
 -0.000000000000000 0.000000000000000 0.000000000000000
 -0.000000000000000 0.000000000000000 0.000000000000000
 -0.000000000000000 0.000000000000000 -0.000000000000000
 -0.000000000000000 -0.000000000000000 0.000000000000000
 -0.000000000000000 0.000000000000000 0.000000000000000
 0.000000000000000 0.000000000000000 -0.000000000000000
 -0.000000000000000 0.000000000000000 -0.000000000000000
 -0.000000000000000 0.000000000000000 0.000000000000000
 0.000000000000000 -0.000000000000000 0.000000000000000
 0.000000000000000 0.000000000000000 -0.000000000000000
 -0.000000000000000 -0.000000000000000 0.000000000000000
 -0.000000000000000 0.000000000000000 -0.000000000000000
 -0.000000000000000 -0.000000000000000 -0.000000000000000
 -0.000000000000000 0.000000000000000 -0.000000000000000
 0.000000000000000 -0.000000000000000 0.000000000000000
 306578.909608782 74799.0271810627 486635.877957901
 233396.044919627 79546.1764690610 524974.944187843
 175869.118970026 86153.7735097497 545937.341004201
 131390.512813678 93748.6126762962 557088.620206721
 97763.3337453611 101432.521289314 562631.117340559
 71994.7673253046 108426.302463044 565208.360175226
 52966.6173443827 114647.636299202 566083.436374975
 38365.6226190822 119662.037104098 566223.521126726
 27907.2217247079 123985.454037716 565905.287272234
 19843.2340113861 127153.089214489 565542.516498257
 14284.5955651610 129963.994432119 565071.066752482
 9977.52155682094 131805.842236984 564736.813937061
 7135.57518007436 133573.339552728 564364.462495276
 4945.94172770366 134559.155451123 564153.677063889
 3559.54277042736 135631.812837611 563907.209567008
 2533.13399687142 136090.456443806 563802.244494530
 1891.56857520466 136693.823896775 563658.780182481
 1471.74314023538 136836.756616999 563625.350752315
 1180.81602132129 137119.656694714 563557.277853323
 1040.55691892868 137084.678217563 563566.063775389
 886.948174554668 137159.595378600 563548.097963709
 839.600315022202 137043.529713724 563576.406563400
 717.514036315666 137006.022419991 563585.694454944
 670.404600501324 136880.063026292 563616.357909873
 541.439954655367 136809.708345353 563633.578262717
 467.125610424460 136721.796600324 563654.976140586
 334.407680606064 136673.952497977 563666.673558127
 246.014583231023 136645.668072774 563673.576526140
 132.532916344611 136643.809365903 563674.065215884
 58.7438174345480 136669.246797721 563667.910678715
 -13.0549202292329 136705.629723464 563659.090791127
 -50.7549690894034 136758.247431558 563646.324554132
 -74.4750879646546 136806.257792313 563634.670937057
 -74.9256719561667 136854.477516701 563622.964728882
 -64.0985560615183 136888.107522523 563614.799229294
 -44.3422085402623 136912.337513335 563608.915712308
 -22.8386501532229 136921.474106083 563606.697446911
 -4.16009109171701 136921.746593671 563606.631696641
 9.15074471033833 136913.944570756 563608.526992220
 15.3499729530345 136903.761137331 563611.000558746
 15.8170866811914 136893.615978987 563613.464755782
 11.8357640371721 136886.474442882 563615.199382090
 6.24303710518243 136883.018263111 563616.038870618
 0.837229287266307 136883.080812518 563616.023713461
 -2.72704823915103 136885.450368001 563615.448218120
 -4.13004539704903 136888.622883280 563614.677690407
 -3.62175579181671 136891.344178089 563614.016749050
 -2.09853252385046 136892.851320676 563613.650697790
 -0.435699631430744 136893.095054424 563613.591502397
 0.713899394067379 136892.449791664 563613.748226148
 1.12800705118627 136891.548349787 563613.967170017
 0.946492117322975 136890.874373947 563614.130866358
 0.459806577690446 136890.680995565 563614.177834766
 -0.0418442339060259 136890.873900261 563614.130982200
 -0.439364330471970 136891.199597123 563614.051876519
 -0.687089717331831 136891.334993939 563614.018990927
 -0.801678382175337 136891.101187226 563614.075778015
 -0.677262745863168 136890.492190111 563614.223691605
 -0.181536092610966 136889.740908445 563614.406162570
 0.842447160327315 136889.238189557 563614.528261270
 2.31433913192984 136889.467782853 563614.472494072
 3.87793726477803 136890.841468009 563614.138846021
 4.78587496552866 136893.515409177 563613.489384359
 4.11390538920571 136897.189835373 563612.596912324
 0.966236888311106 136900.953696605 563611.682700090
 -5.08994072369532 136903.301196811 563611.112466307
 -13.7062800815472 136902.305406902 563611.354202888
 -23.4476668557526 136896.063129925 563612.870106543
 -31.7646507801231 136883.227811839 563615.987117842
 -35.1871800775414 136863.656789185 563620.739693062
 -29.8316564623190 136838.888482888 563626.753897329
 -12.1229769647259 136812.450902064 563633.172490055
 20.3721240931624 136789.789282504 563638.672495975
 68.1282372453117 136777.862336357 563641.563170460
 129.056506800016 136784.412060036 563639.963063131
 198.157321904947 136816.979596272 563632.038503693
 267.583568998641 136881.936369404 563616.238139743
 326.971320045784 136983.477837295 563591.536389037
 364.110083469741 137123.080951835 563557.564135310
 365.579385915448 137299.047577659 563514.718428880
 317.438887286785 137506.843655312 563464.077985906
 205.355325164093 137739.388942679 563407.329170368
 14.4410640991647 137988.269652520 563346.462871436
 -272.137718099056 138244.531453893 563283.565767861
 -675.182050165850 138500.406058742 563220.366864305
 -1223.61645347158 138750.192842122 563157.958968041
 -1959.85773741391 138992.146553329 563096.210388728
 -2948.90874225219 139229.260339704 563033.317844059
 -4290.19912377433 139471.358150684 562964.771941444
 -6136.39263445662 139736.179308581 562881.999070565
 -8718.85472897117 140052.444465419 562769.308306233
 -12386.8161256873 140462.513162801 562598.301794681
 -17662.0715596643 141028.073560617 562315.866480755
 -25320.6292674295 141836.189110741 561819.687437209
 -36506.9459273953 143008.271945786 560906.299709795
 -52895.3804309175 144705.568420964 559162.210093846
 -76898.8623840681 147122.786364280 555735.054406725
 -111902.556276833 150434.054808160 548860.103353018
 -162386.907751989 154606.970579441 534908.568672249
 -233490.371164218 158869.850330588 506599.069511120
 0.000000000000000 -0.000000000000000 0.000000000000000
 0.000000000000000 -0.000000000000000 0.000000000000000
 0.000000000000000 0.000000000000000 0.000000000000000
 -0.000000000000000 -0.000000000000000 -0.000000000000000
 0.000000000000000 0.000000000000000 -0.000000000000000
 -0.000000000000000 0.000000000000000 0.000000000000000
 0.000000000000000 0.000000000000000 -0.000000000000000
 -0.000000000000000 0.000000000000000 0.000000000000000
 -0.000000000000000 0.000000000000000 0.000000000000000
 -0.000000000000000 0.000000000000000 0.000000000000000
 -0.000000000000000 -0.000000000000000 -0.000000000000000
 -0.000000000000000 0.000000000000000 0.000000000000000
 0.000000000000000 0.000000000000000 -0.000000000000000
 -0.000000000000000 0.000000000000000 0.000000000000000
 -0.000000000000000 0.000000000000000 0.000000000000000
 0.000000000000000 0.000000000000000 0.000000000000000
 0.000000000000000 -0.000000000000000 0.000000000000000
 0.000000000000000 0.000000000000000 -0.000000000000000
 0.000000000000000 0.000000000000000 -0.000000000000000
 -0.000000000000000 0.000000000000000 0.000000000000000
 0.000000000000000 0.000000000000000 -0.000000000000000
 0.000000000000000 -0.000000000000000 0.000000000000000
 0.000000000000000 -0.000000000000000 0.000000000000000
 -0.000000000000000 0.000000000000000 0.000000000000000
 0.000000000000000 0.000000000000000 -0.000000000000000
 332371.974735024 6186.98933709287 475279.487852867
 258955.683130674 15599.4609861794 518747.155164504
 198691.617956711 27857.3466679197 544192.621403826
 150874.440325109 40673.0317543351 558554.032967712
 113033.933905841 52417.7248568734 566458.923406278
 84217.3207602844 62561.6898546461 570432.711059324
 61747.4690896837 70626.8529027244 572362.732635587
 45320.2638898016 77250.6388811401 573043.115719415
 32556.0531915779 82040.9120140377 573244.618078959
 23622.9591087567 86087.5095750501 573088.908022229
 16647.1967301573 88705.8935772467 572934.669299816
 11984.5372005996 91143.7463189711 572668.480340092
 8326.71043924327 92471.2149022055 572520.515185064
 5983.71554676407 93938.8355001044 572310.833667457
 4173.60440274372 94535.9151984348 572228.574753030
 3037.03505679217 95399.1714363445 572092.452762071
 2221.62630479925 95593.7010353633 572063.727830146
 1679.54472663382 96058.7103600531 571987.677571357
 1364.15863453009 96039.7327213690 571991.703445101
 1088.95769726280 96237.6369167076 571959.029487096
 987.664978545833 96120.2008239351 571978.960724480
 811.762535654391 96153.0168238594 571973.721771600
 768.914043002790 96013.3267315509 571997.246375483
 617.798442716013 95968.2851297417 572004.988242533
 565.199811292820 95857.1369334881 572023.679447003
 419.715926960506 95802.6532900459 572032.932147379
 346.619862589676 95747.1318706343 572042.276928217
 217.461041562404 95723.7618320533 572046.251741427
 143.364819204142 95726.2460295327 572045.859409560
 50.0550288683052 95742.7718094909 572043.109512499
 -0.539387687350114 95784.1942324598 572036.177295586
 -46.7309893002975 95824.2424751186 572029.468096080
 -62.7218332066508 95874.9295711552 572020.973344245
 -67.6181331114935 95913.0292832887 572014.585689466
 -56.8208919116300 95948.1331401910 572008.699687599
 -40.1265461857024 95967.0622055617 572005.525638952
 -21.1866423342091 95977.9461460292 572003.700516628
 -4.19637477750077 95977.0469542298 572003.851770542
 7.33445553311606 95971.3007039799 572004.815877797
 13.4885114302330 95961.8115242010 572006.407784960
 13.8031135024893 95953.1090193573 572007.867672284
 10.7704314581169 95946.5214355088 572008.972751673
 5.77383641691340 95943.3473572378 572009.505222205
 1.17322338376417 95943.2036657723 572009.529351542
 -2.11359647738905 95945.1299616079 572009.206247751
 -3.42012432494750 95947.8625900580 572008.747881274
 -3.14734329149672 95950.2299106619 572008.350787106
 -1.90886929441746 95951.6294152933 572008.116034123
 -0.513380865341746 95951.9044569599 572008.069900084
 0.503985646258502 95951.4242550582 572008.150451698
 0.929807222291189 95950.6599463032 572008.278659501
 0.840914230269985 95950.0952267732 572008.373387371
 0.482974984312752 95949.9172907280 572008.403235188
 0.0437873895101040 95950.1078390012 572008.371272381
 -0.341851213501492 95950.4036473937 572008.321652566
 -0.674792437998539 95950.5364106995 572008.299382136
 -0.882514897656334 95950.2781779200 572008.342698602
 -0.871926532153126 95949.6205317660 572008.453013634
 -0.402800464778575 95948.7509547859 572008.598877722
 0.663743000232066 95948.0896265450 572008.709808318
 2.32827769818796 95948.1656728029 572008.697048047
 4.17307524103435 95949.4849711552 572008.475738215
 5.44689815054048 95952.2993444937 572008.003633547
 5.07772496852968 95956.3647045172 572007.321672468
 2.06459818639862 95960.7794270798 572006.581087565
 -4.20739848964193 95963.9323470373 572006.052127765
 -13.4797466297675 95963.7388674089 572006.084443937
 -24.3674885850474 95958.0301054731 572007.041796255
 -34.2260406652963 95945.2130456892 572009.191291710
 -39.3820605095241 95924.8862947522 572012.600069607
 -35.6327425412087 95898.4585123319 572017.031551741
 -19.0147867146964 95869.4309829244 572021.898043639
 13.2890574395990 95843.4014479861 572026.260081023
 62.0972375796706 95827.6316923315 572028.898875024
 125.523383431017 95830.2703928752 572028.446425795
 198.650551714468 95859.3816275187 572023.548022237
 273.507346114397 95921.7909205855 572013.055113534
 339.516648911142 96022.2242074389 571996.168856664
 384.079509152808 96162.4488424168 571972.583185209
 393.444883544865 96341.1925102350 571942.496958243
 353.236020821544 96554.0295571490 571906.631016454
 248.944889940656 96794.3418628548 571866.062474229
 65.4142022017844 97053.9144210882 571822.116935438
 -214.001380324823 97324.7187950218 571776.051715074
 -610.121037701309 97599.8289350939 571728.870308436
 -1151.26549968304 97875.6105183494 571680.889529648
 -1879.69210356641 98152.5992048676 571631.466967070
 -2859.49068734723 98437.8841483526 571578.346578493
 -4189.96524451633 98745.9884236049 571516.993589426
 -6022.85774418564 99101.7253349782 571439.037186140
 -8589.93723044548 99541.6872442545 571329.734460709
 -12240.4429187375 100118.348244300 571162.400637494
 -17498.9002919300 100903.013280842 570887.353511548
 -25146.0784856637 101991.361822204 570408.131823561
 -36339.3155457136 103505.998333924 569531.353355166
 -52778.8537391269 105595.394839301 567859.142029708
 -76933.1301211788 108412.346242822 564560.055859325
 -112294.199866163 112043.389341028 557885.554196731
 -163527.893496515 116307.729604970 544179.327136497
 -235996.296172846 120257.039733964 515988.364778822
 -0.000000000000000 0.000000000000000 -0.000000000000000
 0.000000000000000 0.000000000000000 -0.000000000000000
 -0.000000000000000 0.000000000000000 0.000000000000000
 0.000000000000000 0.000000000000000 -0.000000000000000
 0.000000000000000 0.000000000000000 0.000000000000000
 -0.000000000000000 0.000000000000000 0.000000000000000
 0.000000000000000 0.000000000000000 0.000000000000000
 0.000000000000000 0.000000000000000 0.000000000000000
 -0.000000000000000 -0.000000000000000 0.000000000000000
 -0.000000000000000 -0.000000000000000 0.000000000000000
 -0.000000000000000 -0.000000000000000 -0.000000000000000
 0.000000000000000 0.000000000000000 0.000000000000000
 -0.000000000000000 -0.000000000000000 0.000000000000000
 0.000000000000000 0.000000000000000 -0.000000000000000
 0.000000000000000 0.000000000000000 0.000000000000000
 0.000000000000000 0.000000000000000 -0.000000000000000
 -0.000000000000000 -0.000000000000000 0.000000000000000
 0.000000000000000 -0.000000000000000 -0.000000000000000
 0.000000000000000 -0.000000000000000 -0.000000000000000
 0.000000000000000 0.000000000000000 -0.000000000000000
 0.000000000000000 -0.000000000000000 0.000000000000000
 0.000000000000000 -0.000000000000000 0.000000000000000
 -0.000000000000000 0.000000000000000 -0.000000000000000
 0.000000000000000 0.000000000000000 0.000000000000000
 -0.000000000000000 0.000000000000000 -0.000000000000000
 371699.325664074 -65303.1186380945 440426.059625236
 299227.721019261 -48496.3933713309 494480.404873230
 235239.456308732 -27160.3856898335 529456.996974024
 180838.283392621 -6241.00246631516 551052.234500347
 136969.517193292 11890.5936552164 563469.577832169
 101800.861565790 26292.4325011567 570390.473778827
 75270.4594426585 37586.7254676838 573865.485984222
 54559.1850997103 45706.3495030454 575616.386959545
 39741.1332072635 52092.5098654229 576287.265820896
 28224.9549810597 56255.9599239752 576574.903103967
 20373.1522116500 59822.3979638901 576546.802411401
 14234.6196866282 61806.9510007975 576521.705064399
 10229.4815966325 63845.4534641741 576384.520765624
 7099.47034427447 64695.8395897446 576336.746928919
 5113.32926070194 65885.4882359081 576223.009175950
 3617.22119901930 66164.0762395748 576202.421659404
 2645.36332809948 66842.7083366387 576129.372966772