# OOMMF OVF 2.0
#
# Segment count: 1
#
# Begin: Segment
# Begin: Header
#
# Title: Oxs_TimeDriver::Magnetization
# Desc: Oxs vector field output
# Desc:  MIF source file: C:/Users/Victor H. González/Documents/GitHub/Intro-to-magnetism-in-python/vortex_dynamics/drive-2/vortex_dynamics.mif
# Desc:  Iteration: 1972, State id: 12435
# Desc:  Stage: 281, Stage iteration: 6
# Desc:  Stage simulation time: 1e-11 s
# Desc:  Total simulation time: 2.82e-09 s
# meshunit: m
# meshtype: rectangular
# xbase: -4.7499999999999995e-08
# ybase: -4.7499999999999995e-08
# zbase: 2.5000000000000001e-09
# xnodes: 20
# ynodes: 20
# znodes: 1
# xstepsize: 5.0000000000000001e-09
# ystepsize: 5.0000000000000001e-09
# zstepsize: 5.0000000000000001e-09
# xmin: -4.9999999999999998e-08
# ymin: -4.9999999999999998e-08
# zmin: 0
# xmax: 4.9999999999999998e-08
# ymax: 4.9999999999999998e-08
# zmax: 5.0000000000000001e-09
# valuedim: 3
# valuelabels: Magnetization_x Magnetization_y Magnetization_z
# valueunits: A/m A/m A/m
#
# End: Header
#
# Begin: Data Text
 582716.814026099 -548124.893676907 -464.309113410124
 625519.372311115 -498723.649876990 -485.712757675084
 668733.267957645 -439084.861053418 -548.744375425330
 705399.685894937 -377373.579598879 -681.586424196268
 734833.831552534 -316257.147042457 -810.524761299286
 757841.347714253 -256272.293553233 -1001.62448511792
 775356.057280204 -197032.159928806 -1145.59708769660
 788006.824088458 -137997.996015245 -1341.00178870037
 796111.068832682 -78772.1590724446 -1453.62895843565
 799764.142527025 -19358.0165405309 -1607.33432390217
 798997.699723109 39999.0347483504 -1659.23367256684
 793858.975118477 98918.5869674654 -1743.78215415928
 784388.662247992 157262.373382136 -1724.08092126615
 770510.764226726 215197.910953629 -1738.19790020744
 751872.357563954 273285.825157852 -1678.00447347129
 727766.355365448 332194.724198084 -1672.48708586100
 697165.259175231 392374.675071116 -1647.95690720319
 659173.942840048 453306.522862054 -1705.69968637421
 614444.386739682 512303.447707109 -1809.16320588475
 570107.419120929 561225.048949819 -1993.76391472316
 534288.068604057 -595429.296559941 -461.026549913273
 581961.981794790 -548926.249223109 -473.982416239026
 632531.107883211 -489800.006921519 -592.266592912151
 677001.748449638 -426225.483049622 -685.707846095327
 713827.434515780 -361178.010794867 -915.560419727220
 743443.003842968 -295451.222330240 -1036.94769010431
 766526.826691721 -228986.693731810 -1310.74623574490
 783558.196074458 -161352.362495715 -1403.02587044297
 794633.648749330 -92491.2488441918 -1653.22792392662
 799676.433767218 -22688.4748380654 -1683.56373995652
 798606.777987941 47155.9872419240 -1878.03593142067
 791517.173450925 116177.406508543 -1836.94017519280
 778629.452530344 183663.867358332 -1938.93766720635
 760067.789841344 249586.977977362 -1815.28780690111
 735690.674430497 314254.490508931 -1829.41273979155
 704933.143295914 378241.210479557 -1688.24699077150
 667019.274677192 441681.365497814 -1690.73389314647
 621467.794817548 503760.965118833 -1634.02177301510
 569853.002621915 561484.294830895 -1715.24372618103
 521371.983831109 606768.438174422 -1821.23896996383
 475431.167506513 -643401.102557598 -475.595480300943
 525662.466927065 -603057.770199359 -544.670845104763
 582561.335109568 -548289.990782991 -613.875025142699
 635583.035143611 -485832.753443018 -860.883042064952
 681811.040008602 -418488.630880885 -985.670244085573
 720633.740356472 -347397.828033526 -1327.15388315355
 752121.596516795 -272600.575949696 -1424.79644902809
 776103.232138252 -194063.696175416 -1747.82473201412
 792129.184352255 -111929.773919394 -1755.27997359086
 799527.002047902 -27430.5088239957 -2034.74370649570
 797923.118605053 57572.9473760247 -2013.08867760090
 787520.896444756 140732.794815132 -2262.32764419793
 768994.788242817 220550.148923332 -2155.79806132848
 743104.498018382 296294.893200029 -2245.28137042983
 710229.698937561 368197.943296688 -2012.28704474416
 670398.548280633 436533.922506107 -1980.14258335626
 623437.467991334 501320.900397199 -1754.51688410774
 569897.176437811 561439.419666118 -1728.10103364785
 512721.587329926 614095.956436025 -1652.32406152466
 462460.216440489 652784.448668234 -1735.45000673268
 414170.355395988 -684443.297762700 -537.455934516267
 464405.347171267 -651404.136105242 -570.073434388852
 524638.000170283 -603948.959585801 -789.298773813080
 584478.412755289 -546245.493316752 -919.812043872903
 639893.814604535 -480139.786316302 -1300.62561639480
 689227.388180812 -406157.114515243 -1416.23095202609
 731326.563559752 -324281.281183693 -1762.98206055492
 764963.899243823 -234152.494181755 -1685.91878479038
 788274.812563237 -136452.484959034 -1881.28331199479
 799304.804558771 -33297.3685607525 -1764.83885832846
 796841.624243599 70984.3968887264 -2154.36096503131
 781340.356489337 171761.886567457 -2258.68189554863
 754639.727196565 265540.821534914 -2637.08840510096
 718807.959436091 351153.607195207 -2502.31994697939
 675492.579321972 428606.286814363 -2534.99194373908
 625653.183934329 498551.227556799 -2183.33104372096
 570209.675443201 561120.882699467 -2069.06489249565
 510705.919547728 615772.924683533 -1780.15886895528
 451062.599249565 660711.383685120 -1731.76993890092
 401486.114805550 691958.095865012 -1700.93656906215
 353226.467989980 -717795.744285793 -576.017819111539
 401074.632438950 -692198.412842183 -704.608207078664
 461356.348380543 -653566.867578015 -818.176774510778
 524915.968799720 -603706.722576984 -1191.13996190626
 587830.380582661 -542635.878886563 -1321.59337617536
 647602.905657344 -469689.000067040 -1649.18167256365
 702141.999156748 -383398.797541977 -1405.36953593206
 748440.824612343 -282550.711273054 -1194.82747159065
 782358.569582406 -167077.491932086 -424.606469736057
 798962.469544241 -40729.3086932953 -309.310740963834
 795094.608428927 88454.9159857564 -539.893697703987
 771814.039443584 210476.466447871 -1656.98201435392
 733524.410269200 319275.176463875 -2302.44070132613
 685103.754076693 413067.048534564 -2908.53312988528
 630068.039312597 492957.097773678 -2750.56200304294
 570780.859814678 560537.267203483 -2679.95247472040
 508921.733978331 617246.900010734 -2221.06092425361
 446694.992301134 663671.180888852 -2036.54380941932
 387839.112703094 699698.306213753 -1761.51618847166
 341182.009878321 723596.409463489 -1752.81115246726
 293084.564200374 -744379.616552309 -651.681605714707
 336525.745377447 -725775.388419997 -712.924930929734
 393524.428733004 -696518.120208441 -1015.97817957613
 457153.202268057 -656513.241096109 -1146.26416811212
 524328.812064638 -604216.193632330 -1445.05755716728
 593112.744774833 -536857.682278605 -1049.26836805328
 660902.724390241 -450785.459120206 -242.362008974663
 723405.166917235 -341586.131122255 1969.64524140630
 772788.738778760 -206827.147722369 4482.87650545437
 798382.865662947 -50433.6771854842 6422.15083687157
 792106.587979630 111983.459041943 5182.48784565512
 756515.841125911 260150.621083563 2331.62505401782
 702041.259806204 383585.102957557 -733.702090518470
 638384.476196758 482141.240597246 -2254.92047291521
 571664.953415486 559633.745054075 -3041.78125783782
 504956.989553841 620492.192360938 -2806.76323179216
 440150.661322729 668027.354170591 -2617.13908762778
 378867.689141302 704595.480164437 -2117.41743053620
 323950.996771651 731472.491864174 -1935.28723146327
 282063.305996273 748623.452088161 -1793.98831095357
 233277.847928613 -765232.648523859 -662.796315206190
 270447.830923313 -752899.250780756 -830.013645277602
 321055.617286264 -732749.896066075 -938.309166235015
 380395.404495590 -703774.011283483 -1215.43432286203
 447352.069393910 -663231.074998309 -816.802040928690
 521387.237095618 -606757.981138041 318.306593685571
 601535.184862988 -527389.662554246 3945.27600668551
 683495.843213530 -415600.761554135 10461.3242683938
 755878.063110840 -261248.467633895 19939.7057838429
 796944.573050744 -64559.2232296588 26673.0984504883
 786172.918115179 146176.649076589 23759.8418977025
 730283.514812075 326334.416254184 13850.5148555012
 653407.371081804 461554.080262868 5161.24100031312
 573029.494505559 558244.685099341 -264.546860100865
 496689.006375023 627132.068508450 -2323.70275748961
 426760.063426553 676658.483169629 -3024.13933900870
 363528.122590749 712629.107744804 -2656.85537617540
 307302.727726532 738619.867562345 -2392.64999894850
 259182.695623655 756849.021618022 -1971.99520762691
 223703.934352205 768083.962395927 -1891.15454603525
 173028.831525866 -781063.722434996 -696.388383690587
 202276.555548504 -774004.926172612 -754.543545951869
 243250.367706912 -762120.905729486 -991.796612205563
 293615.662667001 -744170.201351932 -744.349678084705
 353948.142431825 -717440.370007320 167.190969307558
 426485.122268455 -676827.299462864 3904.76445752051
 513658.764520076 -613182.378063203 12729.6843820258
 615693.754718510 -509852.263773834 31174.8219773775
 721162.865951526 -341161.593021031 59438.1041078419
 790731.072220050 -87746.7052149986 83933.8260157508
 770928.211907853 200467.016057581 74045.0373592302
 680503.123075860 418342.545552018 43646.4668107301
 575144.290386688 555751.601068038 18686.9779768026
 480274.830837229 639772.727394313 5190.77515541874
 400605.512516830 692469.886017625 -824.802924568046
 334177.558211673 726855.634907254 -2499.11809562351
 278455.484252804 749969.641682517 -2842.50666383904
 231526.207951556 765761.036598016 -2376.94339537123
 193029.170474509 776360.216476047 -2133.92108289918
 165378.255860215 782717.272312591 -1924.60701713974
 111791.284949191 -792150.425563675 -641.785552283149
 131509.564384860 -789116.355419783 -782.358168059590
 159877.870407126 -783861.317111636 -708.583159872762
 195989.056049524 -775621.162261760 -320.250735167283
 241839.839727644 -762567.215862686 2175.59461743744
 301421.948628800 -740984.564946963 9310.39178432722
 381921.912824207 -702371.485424054 28459.6023849241
 492788.117691942 -626181.400721491 71110.6493579106
 635439.565555182 -462659.405632414 148871.867412558
 754733.603997537 -131191.709131424 230577.367605897
 717044.315314779 294299.733964064 198078.561342311
 574766.044317643 546130.893516520 106700.709680377
 444821.586720264 663434.997088658 44584.3091865236
 348806.092054655 719812.558979237 14289.5094850129
 278766.397999679 749855.979689030 2303.27395034703
 225961.772545185 767422.828522274 -1865.37157441109
 184550.966040334 778417.902365738 -2551.51133743163
 151394.473586143 785540.165914242 -2522.12271710676
 125033.893812505 790165.887047165 -2096.74630084647
 106533.642060212 792872.400807734 -1984.72838619539
 49410.4521710290 -798472.436874110 -612.183447686063
 58398.1742310918 -797865.445475632 -619.808395459870
 71498.7367121354 -796798.309544212 -620.125838304303
 88744.9162570475 -795062.353489852 440.342717367284
 111492.915694287 -792182.805736750 3966.36420882264
 143207.008359144 -786924.618510702 15536.9732770119
 190752.958726188 -775500.022517848 47042.7870350272
 268706.829887420 -742743.209107879 127000.649195127
 399470.693177396 -623879.771157788 301988.735605285
 551670.174399938 -209141.507243496 540296.074967660
 497410.045134044 444848.197555587 441240.669171932
 337868.396801587 695361.976972275 205710.153915491
 232268.741422725 761534.225055921 78210.3306883567
 169933.656014746 781336.256999995 25223.1253158855
 130519.267446873 789262.408672398 5437.92991662015
 103217.681502067 793312.999290044 -771.610505941504
 83028.2040039518 795675.961642089 -2466.05044868791
 67392.2415793455 797152.896068146 -2355.00850901259
 55313.7477224954 798082.506514787 -2168.43445098177
 46941.6805735291 798619.229217911 -1950.73020194791
 -13732.5559980752 -799881.964880073 -509.082854846529
 -16193.9715004468 -799835.852618913 -603.450428070321
 -19669.7193674905 -799758.071276583 -359.955502752724
 -24151.4862520728 -799635.122958212 613.060699315895
 -29852.3198767136 -799427.717964766 4915.56178119944
 -37795.0018470877 -798908.756605724 17785.8498272121
 -50016.1038064833 -796555.827966346 54746.7103383175
 -71865.6441389304 -782089.222398315 152222.788704240
 -113860.159387847 -692190.080822048 384589.074358259
 -171292.195800357 -251547.639675559 739853.207488855
 -149741.746854368 520950.754227980 588377.192724446
 -93142.6860437661 752579.939948516 254848.727726155
 -61322.5492764946 792235.485985403 92749.5536145804
 -44643.8900959808 798212.859002404 29379.4962568290
 -34763.9071763444 799214.541661603 6898.34432815103
 -27977.8692906464 799510.473513414 -491.500062955180
 -22888.4466882490 799669.588759016 -2160.51433375032
 -18784.9442096798 799775.841768203 -2393.49012996094
 -15531.1907012420 799846.626829131 -2038.54493752361
 -13208.6674297152 799888.618401325 -1931.12836192852
 -77021.4202196804 -796283.556156567 -446.118811438330
 -90764.2349790884 -794834.354479937 -450.096791297700
 -110600.188192271 -792317.747597873 -430.364109808608
 -136007.755406148 -788353.702168299 575.106007557869
 -168793.867952916 -781980.785843754 3831.54181491613
 -212813.277995755 -771043.425695562 14231.8094546035
 -276101.907491311 -749688.553399691 41651.0453787086
 -372924.673758555 -699477.013578228 107977.290101945
 -518963.481205533 -558485.623786913 242426.717171142
 -666442.930358289 -173869.740875876 406968.222080316
 -616408.599294599 380268.727186313 339758.934893216
 -452664.844146707 637609.333650935 168964.127893607
 -328903.023074379 726153.269497471 67262.4011663838
 -249167.372868782 759879.781480822 22323.4852639109
 -195792.232868789 775655.559212003 4884.15926932517
 -157450.484768011 784352.480267143 -729.071395399316
 -128098.358234642 789674.349630626 -2287.39000561265
 -104852.732082961 793095.892173729 -2193.26056260680
 -86439.1424834128 795313.896008640 -2020.26292590173
 -73539.2724067161 796610.736105680 -1819.48758119660
 -139859.900639476 -787679.570305971 -320.492926630752
 -164066.219489963 -782995.585902404 -433.681475788333
 -198290.410159605 -775035.996082463 -343.533405908564
 -241017.229961446 -762830.710128220 50.4676836677737
 -293531.559944345 -744200.394123090 2235.33077565382
 -359341.485994138 -714706.867647345 8233.45500046027
 -443710.017694765 -665254.366694443 23623.0351836149
 -552247.247610909 -576090.158810671 56063.4143418972
 -679473.554498208 -407420.234055996 111015.501707321
 -775329.977912128 -109928.379899825 163643.443630899
 -746187.259205298 250676.863290891 142708.389418166
 -627233.930109875 489929.566464607 80911.1662425061
 -506724.319426913 618044.484981872 35376.2446399377
 -409999.438395480 686849.814869883 11738.4977146906
 -335135.705736467 726416.041185129 1947.78064617164
 -276014.006646991 750875.344736397 -1576.32536959921
 -228081.888917185 766794.515933561 -2195.96953168146
 -188548.445218691 777460.436116655 -2180.38503850033
 -156522.762982823 784536.361277807 -1822.77294280264
 -133694.539534676 788747.612634571 -1724.43088458582
 -202077.015020398 -774057.382139916 -221.709599717331
 -235332.974464081 -764603.373779158 -268.207783601016
 -281180.865723832 -748957.371435409 -420.146830209662
 -335995.584160116 -726021.308393598 -164.873743740811
 -399632.230018388 -693032.206785024 664.145473677646
 -472965.032440674 -645205.745220866 3691.12752128515
 -556999.993026138 -574143.466068762 10501.8160062156
 -649639.885128613 -466254.291444952 23978.2267744718
 -739074.689941554 -303127.189952901 43387.8946142035
 -794179.586409238 -76106.8571171036 59046.8528425370
 -778902.637029497 174797.359151696 52503.0024102400
 -705583.359728163 375662.291064119 32093.0763121188
 -613818.409929951 512856.594256589 14320.3826275530
 -525739.657680616 602976.223067045 4181.71707190016
 -447604.501571717 663061.020067013 -542.070500231547
 -379532.717298462 704237.970726698 -1948.61150297753
 -320149.834340578 733143.214556733 -2260.64617358710
 -268626.317243482 753549.086851512 -1917.13052661936
 -225265.818119598 767627.736809522 -1723.04021974031
 -193643.004984480 776208.707723096 -1558.42081064050
 -263918.715206602 -755213.153933104 -62.3707452688093
 -304613.440324531 -739736.855991377 -189.371718906915
 -358790.770435462 -715030.851753671 -253.161501767563
 -420532.956784544 -680552.623857062 -398.019241604088
 -487603.675364347 -634226.028320683 -27.7804177228363
 -558881.505838523 -572407.711544266 934.984663430068
 -632565.292423982 -489742.437258575 3673.68596829376
 -704460.618536659 -379032.066009302 8362.40800646453
 -764855.478441768 -234045.313822585 14794.8698981233
 -797729.153477202 -57133.1625385470 19078.7691136136
 -789256.104980502 129555.245824620 17036.4030925013
 -743927.004819994 294052.406417536 10285.6103178166
 -678660.742350376 423559.687670631 4097.28846841307
 -606991.028134344 521116.001851964 66.1682399065169
 -535795.664722773 594071.111091403 -1587.64949108578
 -467661.755163078 649066.797337686 -2185.25778521274
 -403654.094316823 690694.925641246 -1972.77335217396
 -344654.574824666 721948.771835210 -1787.42777759999
 -292755.830266953 744507.768348142 -1485.50125466560
 -253688.225897407 758709.602008045 -1422.62497542818
 -325949.818113691 -730586.551998012 78.1748459648187
 -372223.698958014 -708131.003244371 13.3467622385162
 -431435.291089725 -673693.962155895 -186.967955083916
 -495199.073235600 -628313.464443449 -261.277004810531
 -559999.642523740 -571314.478599952 -408.552746962334
 -623613.411583108 -501105.085865988 -76.2424953748852
 -683911.418156992 -415047.988944011 582.226781615889
 -737342.382504320 -310357.241268320 2143.30473123251
 -778142.563713533 -185686.051133926 3852.39556881271
 -798717.434570382 -45000.0546084206 5045.27487320899
 -793709.612395280 100039.588167705 4139.08088472328
 -764871.610762395 234450.472668005 2096.40537319210
 -719348.725912926 350053.419732017 -117.734320402027
 -664268.659718314 445808.675417800 -1331.40462021985
 -604242.581144063 524296.662231068 -1978.15715297303
 -541871.842280667 588533.157923785 -1904.87994708417
 -478745.018335839 640936.789289738 -1799.87599063349
 -416769.626122487 682862.279859269 -1478.33931266231
 -359284.624360451 714781.599349162 -1350.52953523050
 -314369.668693130 735642.665727697 -1256.88775085451
 -388550.811881944 -699305.512125039 259.417462105161
 -438383.959771353 -669193.158913115 140.993179281460
 -499126.427298744 -625198.215089029 37.7025721280997
 -560695.216257083 -570631.959449265 -203.276942500074
 -619086.943568703 -506686.558410607 -296.359202596192
 -672490.663184756 -433308.299989899 -474.435656424546
 -719479.156824186 -349785.149825321 -303.079586283808
 -758218.601650931 -255155.910284624 -116.435952142626
 -785864.694159324 -149721.581078730 361.432091066093
 -799178.001736521 -36253.9627034779 414.401635431930
 -796081.215196796 79086.4961326357 157.924839369675
 -777302.047446243 189211.782412492 -654.547299611233
 -745835.951861405 289356.594947699 -1222.24026452049
 -704956.648978949 378197.311186238 -1707.88520389401
 -657086.408925905 456327.230603051 -1705.81798837328
 -603615.697343966 525019.256214633 -1694.26201999609
 -545642.125224564 585040.691711579 -1435.34736507379
 -484809.830803406 636362.861074702 -1317.95341025598
 -424983.332721992 677781.558168745 -1151.65743912783
 -376029.828253392 706116.319437175 -1145.28958062055
 -451245.127107206 -660588.870672067 423.327540046901
 -502295.193617816 -622655.142522377 334.602569348987
 -561068.754795478 -570264.701165107 151.648680038475
 -616843.964703842 -509414.882939097 15.7667997876567
 -666436.811997197 -442562.898136641 -238.344096114622
 -709007.300818818 -370551.647123562 -352.419677656836
 -744339.186121181 -293187.416842731 -560.900655322242
 -771894.504268149 -210186.987843769 -551.744317539377
 -790680.041608901 -121756.412289120 -669.229280394980
 -799453.356072955 -29561.4778518210 -671.186192506607
 -797478.687270613 63457.3628328185 -952.077435877157
 -785074.689896664 153806.546915077 -1130.22551543269
 -763421.686846975 239134.486415283 -1423.18608000020
 -733855.735729822 318517.967422203 -1436.51163236332
 -697224.400054035 392270.222466690 -1486.11413592004
 -653846.082209475 460959.392341898 -1318.85977551323
 -603777.244002132 524834.710883185 -1251.35021225175
 -547767.309036667 583052.121398149 -1094.93554470579
 -488999.963469336 633149.194798730 -1064.35553665386
 -438153.105562600 669343.517694775 -1054.23234415500
 -511371.416303501 -615222.652260197 602.273758548535
 -561128.079941026 -570206.155695823 466.806478450125
 -614654.477375798 -512054.459834159 321.878598795821
 -662389.045034404 -448598.641643600 108.323256156989
 -702515.331203815 -382716.875523720 -51.1170748436631
 -735308.690418561 -315152.418172536 -288.296625776492
 -761322.020553930 -245740.930762646 -419.484909003243
 -780842.620431781 -174024.168650542 -625.174149581477
 -793725.087626111 -99999.9376994233 -705.501971996458
 -799630.054066450 -24310.1510236528 -890.612650241522
 -798332.521057655 51616.2699243318 -972.882741033654
 -789975.325150977 126244.425067133 -1153.59961657940
 -774999.384406270 198430.229632150 -1182.42887097304
 -753805.270011461 267910.508243502 -1254.78111891336
 -726470.220605110 335021.849554443 -1174.26363402806
 -692585.394254005 400404.975221049 -1152.16502912198
 -651476.559629395 464302.916831084 -1045.78946065015
 -602810.162956509 525945.683300822 -1022.57204121625
 -548426.584839622 582432.224395451 -992.485221782458
 -498058.952566373 626048.074475233 -1043.17512475032
 -560849.238413955 -570480.125406764 747.185633742286
 -606904.838068057 -521216.040913198 596.845338500117
 -653686.080305769 -461187.970840242 404.928068937380
 -693706.035208597 -398461.903481675 219.519767357317
 -726155.498311631 -335705.514063885 9.94433223770325
 -751822.997315936 -273426.685257554 -168.807429511571
 -771618.200839115 -211199.470105205 -368.729017218439
 -786104.974419975 -148454.372625540 -518.112467092248
 -795484.723703290 -84873.9190959419 -687.176831692257
 -799732.776766824 -20660.1382421539 -802.778076857307
 -798810.982239605 43590.4606844572 -941.483252108835
 -792793.126927672 107135.546379645 -1016.16838167895
 -781828.867222704 169535.925039371 -1092.01570857473
 -765974.961198777 230827.145373180 -1089.85109104493
 -744984.054795338 291543.432999591 -1088.47393654320
 -718196.278609760 352410.312034422 -1037.96093059726
 -684593.542360035 413921.067855130 -1015.55138192177
 -643294.007064408 475575.268242166 -992.326262278495
 -595078.346399034 534678.138300827 -1024.72930798778
 -547599.086817872 583210.120136886 -1093.56579732689
# End: Data Text
# End: Segment
