# OOMMF OVF 2.0
#
# Segment count: 1
#
# Begin: Segment
# Begin: Header
#
# Title: Oxs_TimeDriver::Magnetization
# Desc: Oxs vector field output
# Desc:  MIF source file: C:/Users/Victor H. González/Documents/GitHub/Intro-to-magnetism-in-python/vortex_dynamics/drive-2/vortex_dynamics.mif
# Desc:  Iteration: 2812, State id: 17715
# Desc:  Stage: 401, Stage iteration: 6
# Desc:  Stage simulation time: 1e-11 s
# Desc:  Total simulation time: 4.02e-09 s
# meshunit: m
# meshtype: rectangular
# xbase: -4.7499999999999995e-08
# ybase: -4.7499999999999995e-08
# zbase: 2.5000000000000001e-09
# xnodes: 20
# ynodes: 20
# znodes: 1
# xstepsize: 5.0000000000000001e-09
# ystepsize: 5.0000000000000001e-09
# zstepsize: 5.0000000000000001e-09
# xmin: -4.9999999999999998e-08
# ymin: -4.9999999999999998e-08
# zmin: 0
# xmax: 4.9999999999999998e-08
# ymax: 4.9999999999999998e-08
# zmax: 5.0000000000000001e-09
# valuedim: 3
# valuelabels: Magnetization_x Magnetization_y Magnetization_z
# valueunits: A/m A/m A/m
#
# End: Header
#
# Begin: Data Text
 564775.170168793 -566593.918851485 -581.619573378597
 610068.676081777 -517509.306052005 -573.248113602894
 655921.336274910 -458003.088201989 -609.767806722070
 695017.145687902 -396170.036400481 -685.170258650692
 726618.253052427 -334701.818535496 -779.102093511941
 751579.712895709 -274093.328211925 -884.643043203855
 770866.748550461 -213924.047466370 -978.721026446285
 785127.086096335 -153539.364190213 -1059.39697147044
 794631.642233551 -92516.6268561004 -1107.66257407163
 799404.955134983 -30829.0668572168 -1134.17033494955
 799393.436937584 31126.5151486801 -1128.28888810388
 794597.178769568 92812.2140241233 -1102.91404166357
 785069.851324191 153831.852583006 -1043.87388734997
 770786.440047962 214213.287897146 -964.948953929255
 751475.183749854 274379.854706799 -862.287190418420
 726487.030141444 334986.596508977 -758.416505784373
 694855.576253219 396453.396124799 -657.914066307673
 655724.946752501 458284.251426994 -582.323304581669
 609833.968107351 517785.901321575 -540.125028916065
 564504.389721295 566863.737383919 -545.183019362606
 515637.542398442 -611651.529068867 -576.070317536350
 564813.422795766 -566555.787593790 -580.494369347477
 617467.358514639 -508658.678163088 -640.545340713245
 664184.627798706 -445935.244643948 -733.335010242405
 703291.324691542 -381288.046523359 -859.181015366291
 735138.787136809 -315547.154429789 -978.252668516974
 760426.442907672 -248496.319362749 -1097.35589081439
 779559.587080394 -179681.608537092 -1170.36087173541
 792560.056514070 -108844.204625352 -1223.08539740428
 799171.139938565 -36386.5297652138 -1228.63376965219
 799155.611943958 36725.7899250062 -1234.60635969266
 792514.016246697 109179.122593697 -1205.50495688482
 779484.041837016 180009.086695640 -1165.00147229077
 760322.461270203 248814.401887247 -1071.58831266157
 735006.472794399 315855.275475534 -964.315617943350
 703130.118043467 381585.310092034 -829.591554263074
 663993.169820989 446220.307101696 -712.713927245198
 617245.219046859 508928.254648008 -609.249313694042
 564562.661168442 566805.695546902 -552.367630735020
 515366.608386756 611879.861798941 -541.926970261841
 456084.125544136 -657257.094605134 -618.075932590442
 506765.619161300 -619021.962496535 -645.897053223041
 564774.580180796 -566594.333888748 -731.017628181363
 619503.581850309 -506176.397376422 -875.678973718492
 667836.074361646 -440447.407508090 -1029.07756160212
 709130.030447181 -370314.961220903 -1195.58100577527
 743317.546907390 -295765.679407865 -1298.97805357096
 770176.594834559 -216393.554899663 -1357.26450250748
 788987.270559197 -132277.494748538 -1323.35883229563
 798764.284756204 -44429.0286626789 -1295.68900630169
 798742.468520762 44820.0289636857 -1278.27424803275
 788923.103120306 132659.639517878 -1325.67191058454
 770073.617690138 216759.917347111 -1327.24123505399
 743179.491290627 296112.446333485 -1289.51595719217
 708960.552258457 370639.433935420 -1159.89370855285
 667637.804838383 440747.928736639 -1012.35613625220
 619279.936546780 506450.050881648 -840.328860214909
 564529.950662052 566838.100958628 -708.595170762504
 506507.516310865 619233.203629361 -612.734458721939
 455821.673972874 657439.165340397 -587.718545345141
 394222.880708267 -696123.428935850 -701.436148743361
 443906.134326158 -665542.475377076 -746.576562337397
 504115.847777081 -621181.479893804 -883.774258313364
 564658.828942062 -566709.165737083 -1062.24637341745
 621640.043154270 -503549.428828186 -1276.50850618845
 673304.074651627 -432041.212921514 -1418.94144453523
 718568.410291991 -351649.398308600 -1463.01047177935
 755987.597595428 -261688.909333503 -1291.12886055770
 783404.975798861 -162097.637973564 -999.828474160400
 798113.716808785 -54899.8128491480 -711.049081658784
 798082.913248241 55345.6571997653 -722.364401491432
 783316.166418692 162526.443619167 -968.788744156911
 755848.982120544 262089.042371611 -1284.56065164368
 718389.845528373 352014.223049800 -1420.07477482968
 673094.062770582 432368.379084423 -1402.65138242071
 621406.937153679 503837.175036487 -1232.68347005522
 564410.088402206 566956.935586342 -1041.77749880392
 503860.438705822 621388.721618825 -845.548401867738
 443652.656707792 665711.498989415 -721.324743396121
 393977.861924024 696262.161402442 -668.515501448808
 332735.250239631 -727520.861533719 -805.779874313942
 379166.844361546 -704437.168539303 -883.015989654238
 438146.890792408 -669347.594619217 -1048.64980615894
 501149.331240141 -623576.528147078 -1288.93040797419
 564456.318519484 -566909.943288316 -1476.71401068985
 625958.652350240 -498170.102977062 -1521.19942593684
 683661.329829853 -415458.589323118 -1160.45375728674
 734752.671284874 -316446.559410572 -295.088043774562
 774596.292850427 -199998.789894408 1033.02620877572
 797052.568702221 -68576.3913415072 2116.90239916006
 797009.254911353 69077.2322046230 2140.92891031758
 774474.748846813 200468.929379654 1035.25457768470
 734571.261333897 316867.481017558 -247.983698324691
 683438.915898198 415824.416501689 -1141.43634395545
 625711.621194307 498480.507048162 -1466.69540110172
 564196.997004627 567168.084025460 -1453.62782322962
 500889.081377646 623785.691616551 -1240.60111222154
 437894.451353436 669512.807223800 -1024.90837738685
 378929.764020945 704564.773377120 -845.017797864261
 332514.990911724 727621.590504872 -775.790007530314
 272131.637354243 -752292.175790612 -924.226771793282
 313343.965723149 -736080.516997366 -1015.69768199220
 367843.100378874 -710415.328283466 -1230.78980842762
 429271.385229418 -675073.310723286 -1450.16285915320
 495202.767164829 -628308.712514711 -1543.10414509986
 564133.840091206 -567231.690246289 -1104.55614934444
 634354.120005234 -487436.902947568 340.701143407367
 702177.663771656 -383320.983184507 3398.87490817856
 759994.283132398 -249694.523995190 7831.62134478417
 795112.777830907 -87510.3050940740 11731.0286147494
 795051.576648719 88065.7466072357 11722.4034607300
 759829.546707488 250194.104432370 7872.10629865970
 701947.467044034 383742.178155636 3419.68051611463
 634091.002174081 487779.086929441 404.123928867804
 563859.906192289 567504.055463595 -1073.88136897908
 494933.452710162 628521.028567845 -1481.22800954687
 429015.929673269 675235.742424958 -1422.75732183236
 367608.707818928 710536.726553556 -1182.43572972444
 313133.179678960 736170.248441687 -988.480373069243
 271942.277921998 752360.690703996 -888.010136574802
 211983.009060766 -771402.706316359 -1033.71047283791
 246277.268315932 -761147.936359811 -1151.55809397142
 293140.180534951 -744356.768216138 -1355.05230993871
 348608.955527651 -720048.247808656 -1522.15426484086
 411936.873129144 -685788.977227401 -1221.17565445171
 483538.278212441 -637330.879232519 289.620532255291
 563597.416482717 -567747.867881429 4506.73386141296
 650046.783168715 -466117.748373090 13169.0676817791
 733461.705807430 -318308.670825370 26711.7238575328
 790545.365345505 -116045.280753792 39642.3781516067
 790454.482234838 116657.264982625 39658.4674644388
 733240.332030481 318817.683171079 26718.9142978468
 649766.782282208 466506.327340453 13227.8189414696
 563305.752629765 568036.941994307 4545.50150922243
 483258.298079504 637543.162418056 365.227716444060
 411678.774078581 685944.010336668 -1183.91570931019
 348378.285330063 720160.010928610 -1459.09896513018
 292937.599368523 744436.569091944 -1325.69786214932
 246102.232693922 761204.615451908 -1106.56124097901
 211829.534654037 771444.908543695 -1000.66491128274
 151665.785118906 -785491.061916046 -1131.93386222634
 177474.627207595 -780064.874170257 -1244.50121188324
 213743.593200607 -770916.080548640 -1439.83235730775
 258432.577756728 -757106.775066835 -1390.64801825864
 312525.616004833 -736428.924735926 -422.081847949663
 378573.849572008 -704749.153521002 3235.89735057881
 460592.779280864 -653976.578399459 12997.1758188565
 562129.346791452 -568170.315680303 34541.1328065648
 678580.151714552 -417512.924693993 72193.7352720128
 774600.778713793 -164292.920787265 114023.987805962
 774460.926459012 164975.094475336 113988.997675666
 678284.998695329 417991.599770606 72197.5281161966
 561813.763031215 568481.003171117 34563.6326543799
 460302.458127056 654179.423739728 13073.9664122206
 378319.366952414 704885.565047580 3285.84483471361
 312307.229643528 736521.606644650 -342.429507292272
 258246.519586864 757170.327717054 -1352.75501121448
 213587.183477757 770959.536522424 -1381.33962806229
 177342.938603925 780094.872793868 -1213.08204350836
 151552.853910238 785512.916523523 -1091.07578598963
 90747.2558073223 -794835.516027562 -1199.17664994026
 106756.400329121 -792843.824880347 -1319.21865859988
 129675.427507918 -789418.911037890 -1437.49657072039
 158867.462057731 -784066.197392359 -1152.21787067590
 195866.998624761 -775651.643571078 804.161185866888
 244428.871653490 -761707.889800345 7457.70193209794
 311454.050199015 -736420.432222916 26102.1382121142
 408767.385529401 -683967.402462133 71398.9978687435
 548538.685340284 -558650.951723578 164360.654730665
 700511.002927808 -252594.767761193 292370.002012426
 700285.405145445 253377.750996827 292232.897942839
 548188.278680741 559028.025839458 164247.610159428
 408470.861652509 684143.194200012 71411.7988196757
 311222.124135026 736516.941532293 26145.4448193136
 244245.216646680 761765.922189902 7546.78311496384
 195718.553835388 775689.058953565 855.280257124473
 158747.013689230 784090.699438681 -1077.35718883109
 129576.500125929 789435.218992525 -1402.00903724937
 106675.346676403 792854.817510801 -1268.36957645684
 90678.4299871880 794843.425059214 -1162.74468258995
 29229.4292756946 -799464.878140324 -1244.62214866142
 34469.0217639460 -799255.948921418 -1347.09033140157
 42072.0145901534 -798891.648504922 -1442.06012826358
 51884.5872765256 -798315.188858073 -921.326025334683
 64727.9370141106 -797375.179687950 1765.49922300499
 82376.0305578423 -795670.710810643 11059.3647023944
 108992.580494254 -791616.772463416 38255.7571067124
 153947.576692920 -777134.062498877 111188.095290683
 236797.280854562 -707936.759653017 287667.502703857
 363948.576398595 -384737.967963237 599598.306989733
 363744.236922736 385630.842809922 599148.548507970
 236580.830824886 708127.450083938 287376.103606106
 153812.316065205 777169.795409340 111125.517006951
 108903.071137026 791626.150586908 38316.5604390354
 82310.6898629015 795676.670373587 11116.9491091915
 64677.9778220738 797379.031835699 1854.39305723033
 51844.4482702251 798317.846936485 -876.610661282919
 42040.1118091671 798893.441252760 -1377.86878690245
 34442.7241601561 799257.139665498 -1312.80088163454
 29207.4720241445 799465.747389265 -1200.97014200949
 -32521.0934621173 -799337.726142965 -1256.20246046752
 -38361.4923377282 -799078.539435956 -1372.48625550079
 -46849.8783476832 -798625.683645428 -1451.31687817096
 -57833.6040988993 -797906.210936797 -976.107276634840
 -72233.0340280388 -796730.504394032 1700.63609707304
 -92029.9271862495 -794615.106983609 10831.6321725836
 -121793.317490897 -789778.137044875 37641.4938663236
 -171673.608795522 -773701.635040836 109151.051200888
 -262390.853927425 -701577.925853368 280961.658826474
 -399301.213477892 -377994.412803015 581101.337810185
 -399073.839831540 378890.496000820 580673.800340917
 -262146.524638174 701785.463240743 280671.272495251
 -171515.695127944 773742.511701057 109109.540881256
 -121687.964138606 789792.734807548 37675.9263856117
 -91952.6357504391 794622.824194212 10921.5405580825
 -72174.0571693262 796735.731762753 1754.76613511857
 -57786.4722998420 797909.716725454 -898.651348106933
 -46812.4912339339 798627.942385921 -1414.32135779954
 -38330.8234273612 799080.099053591 -1320.33021791224
 -32495.4995585902 799338.824679175 -1218.96224423672
 -93959.3966152604 -794462.132732254 -1245.56903168205
 -110521.522554321 -792327.677024181 -1358.40853189086
 -134231.093707410 -788656.909768517 -1513.98695026701
 -164417.728300445 -782920.992210249 -1237.16492078090
 -202635.109650121 -773911.275970203 590.984988742953
 -252660.197026532 -759021.400335534 7024.14914399297
 -321341.890587433 -732200.447290338 24937.8094772768
 -420140.737074975 -677354.982652254 68351.9460312717
 -560027.234647982 -549419.223502931 156550.353873664
 -709323.325015790 -245921.940171879 276374.419819640
 -709102.305642186 246709.846928741 276239.337461799
 -559668.940034751 549809.777048337 156460.495405181
 -419834.978009485 677545.200541602 68345.3909405477
 -321099.136960563 732304.475493683 25009.9863075370
 -252467.514024431 759084.997241844 7079.64156379841
 -202479.011383490 773952.060813668 676.395920311701
 -164291.035344932 782947.652967792 -1195.16422218662
 -134127.082696215 788674.722088530 -1452.04200413129
 -110436.306508489 792339.615206141 -1325.28477946202
 -93887.0525573733 794470.750919951 -1203.03565126729
 -154737.326827342 -784891.662929137 -1198.81218772675
 -181016.804760329 -779250.378491725 -1328.16221309362
 -217920.413280127 -769745.658351235 -1521.48783838420
 -263335.024953898 -755415.303432327 -1544.01190924055
 -318188.598696404 -733999.731446526 -640.231243953397
 -384927.920989962 -701300.872391006 2753.54788561543
 -467336.176408486 -649193.998984181 12002.0791041659
 -568491.704944033 -561938.042235928 32292.6941873695
 -683156.460244010 -410763.133138622 67608.4261095999
 -776441.054530560 -160661.951819903 106428.502182882
 -776300.642943473 161347.841615990 106415.157620581
 -682863.213330712 411252.955497588 67593.1836367646
 -568171.903191421 562258.507742060 32342.8337581952
 -467040.740440429 649405.738528736 12047.1380336380
 -384667.439374682 701443.448691843 2837.14155777628
 -317964.560129156 734096.848896886 -595.769697986005
 -263143.888323319 755482.044178139 -1474.77540834889
 -217759.572095982 769791.238878813 -1489.06212046459
 -180881.327507927 779281.917294126 -1280.13177464361
 -154621.083447799 784914.623042305 -1164.08237911131
 -214880.747268275 -770600.406460897 -1130.49357739867
 -249545.664702023 -760082.506881044 -1242.56261507872
 -296864.988613252 -742878.843731407 -1483.93798425391
 -352781.225670426 -718012.983398175 -1662.07283979372
 -416461.752053169 -683050.108057652 -1469.33972792119
 -488200.615480124 -633766.638680937 -82.0968570899142
 -568002.225126659 -563346.432551710 3777.45713726378
 -653580.266855129 -461185.712019828 11856.3825150570
 -735453.541042012 -313867.870964604 24393.6168886666
 -790991.363795134 -114063.988148041 36360.2669032786
 -790902.741761732 114680.046022755 36350.2423374965
 -735232.316925152 314382.917516283 24429.9267871026
 -653299.918676408 461582.060727300 11883.4957877649
 -567708.069389949 563642.378120651 3849.35527503346
 -487917.278766007 633984.800530954 -42.1580381288973
 -416199.873183455 683209.857122870 -1398.81815248586
 -352546.691283308 718128.243292576 -1629.92352922067
 -296658.771708229 742961.322179114 -1430.70417210307
 -249367.282118820 760141.096069497 -1213.53818887928
 -214724.227558520 770644.089889921 -1092.16167884607
 -274849.180064905 -751303.433914798 -1038.46303823906
 -316326.435672864 -734803.566975470 -1141.95211316484
 -371106.553358892 -708715.806210664 -1353.54396011311
 -432738.533004130 -672855.642397771 -1626.82110744597
 -498722.008759095 -625518.444478072 -1741.72243052078
 -567475.135007773 -563888.220892622 -1430.20504229177
 -637209.565074701 -483698.207596990 -118.931790462453
 -704203.702172303 -379592.210565195 2626.69470055074
 -760971.203018435 -246734.149577230 6714.73075243020
 -795262.392795042 -86328.5472602431 10252.2453072594
 -795201.271468884 86886.9427425536 10276.0418023253
 -760807.584120531 247238.018488661 6721.76751173598
 -703973.608136693 380018.381297347 2681.21672912846
 -636945.677485445 484045.654481341 -91.1610523790123
 -567199.581300968 564165.551378965 -1365.87308123251
 -498450.344697765 625735.024060379 -1712.75650190259
 -432480.400831894 673021.717776496 -1571.71799606784
 -370869.279780959 708840.048716099 -1327.64863941485
 -316112.806439111 734895.558356685 -1100.86911425133
 -274657.064354545 751373.730003581 -1007.40292279242
 -335285.156002074 -726349.067598239 -946.659301161864
 -381874.866976338 -702972.656412889 -1015.04069452973
 -440973.029851872 -667488.826752491 -1205.44756940925
 -503982.951206049 -621288.260243125 -1443.11389438354
 -567145.676302278 -564218.863599864 -1689.91411290941
 -628325.733061394 -495180.463422803 -1755.51053557731
 -685520.675109562 -412382.255925972 -1509.63397456145
 -735956.431765866 -313636.091128211 -729.989227119032
 -775122.934740003 -197950.145518886 419.439026179459
 -797119.739930839 -67809.1956471533 1425.90261876130
 -797076.807307204 68312.2276438889 1415.20573931346
 -775002.001820507 198423.005790153 456.012508368924
 -735775.474417937 314060.401281046 -718.047525576781
 -685298.307149027 412751.870150690 -1457.36261344966
 -628078.027482277 495494.687028455 -1733.93210549267
 -566885.171759650 564480.751568383 -1638.03169220773
 -503720.935273690 621500.766018462 -1420.28358621131
 -440718.486237250 667656.995582331 -1162.81499959815
 -381635.433191150 703102.707314963 -989.494504157929
 -335062.463400962 726451.865277423 -912.718265018958
 -396626.528899303 -694756.543011154 -861.693961095720
 -446358.891844059 -663899.777984775 -907.999730613223
 -506538.519664894 -619207.280730451 -1035.17442906134
 -566940.192679339 -564426.501636680 -1241.84334492748
 -623665.500361499 -501038.161560929 -1450.62692851643
 -674967.909370994 -429436.389026994 -1645.93402282154
 -719787.200223372 -349146.815821439 -1699.23404777466
 -756724.107216405 -259549.680245099 -1609.05009251408
 -783707.521292553 -160626.033509786 -1341.05495607131
 -798149.516614393 -54369.8886761782 -1124.42587551728
 -798118.945699380 54817.2593151395 -1102.99450908956
 -783619.131517490 161056.677708491 -1342.86457963718
 -756586.047310673 259952.081139858 -1571.15431062886
 -719608.879739639 349514.253526446 -1687.24085792317
 -674757.894274740 429766.468829144 -1601.99377294749
 -623431.870185431 501328.885718258 -1432.33431384480
 -566690.505040116 564677.278878085 -1200.92307012239
 -506281.666453901 619417.345521360 -1013.05475281469
 -446103.598588321 664071.394379422 -873.208750439619
 -396379.428377701 694897.586648330 -832.363679199027
 -458362.493200015 -655670.018827313 -806.993468730067
 -508978.693816855 -617203.385615304 -818.550850132310
 -566825.975371600 -564541.840197755 -907.915285914969
 -621311.622069488 -503955.143337276 -1040.08907692366
 -669341.125481986 -438156.337165819 -1217.34955534608
 -710293.146784618 -368078.463049599 -1375.01630916615
 -744122.103119982 -293734.556645615 -1518.51259435240
 -770638.310474485 -214741.982485717 -1573.33630694348
 -789168.889778000 -131186.674803410 -1587.37537585138
 -798785.079510154 -44045.4540341027 -1547.49180520238
 -798763.344368747 44437.5358015023 -1557.27478130997
 -789105.107621596 131570.077789952 -1563.25169267925
 -770535.711410021 215109.865786656 -1569.42126273350
 -743984.468767193 294083.158812321 -1485.23943030807
 -710123.856119396 368405.013925230 -1361.86815472433
 -669142.835978703 438459.198071819 -1181.81411179445
 -621087.568381597 504231.286391042 -1020.89483797913
 -566580.534592484 564788.220207659 -874.148476586884
 -508719.309173874 617417.229951917 -792.863265757011
 -458098.380212445 655854.613611042 -774.501030969187
 -517806.810631378 -609815.937847319 -792.976137724181
 -566796.601874426 -564571.520737678 -781.073331679409
 -619182.804981222 -506568.829210673 -821.758914157785
 -665601.687296636 -443817.028401297 -916.061632538498
 -704404.594515759 -379226.986205275 -1029.64010843854
 -735956.104234473 -313635.545553106 -1164.99168346444
 -760966.904587982 -246835.454812005 -1276.07583452440
 -779857.960190496 -178380.696564888 -1374.41643757573
 -792674.007662686 -108008.813030329 -1419.11372152504
 -799183.875068975 -36097.5933467439 -1448.30394248731
 -799168.464295055 36437.6504269008 -1436.42182206528
 -792628.177374024 108344.626274441 -1419.29214129644
 -779782.774618752 178709.247449878 -1352.51017687118
 -760863.258048445 247154.807464402 -1266.37243311276
 -735824.117882419 313945.176872913 -1137.30417902244
 -704243.566825408 379525.984849785 -1012.62472175103
 -665410.224531515 444104.095989873 -886.010122305235
 -618960.340754331 506840.665061667 -798.005720582663
 -566545.108842192 564823.936035014 -748.951868973579
 -517534.701332914 610046.928058182 -760.580716712086
 -566855.646036926 -564512.166435711 -830.964572525287
 -611849.368422607 -515402.482605916 -794.534150628576
 -657371.887881333 -455918.349992358 -811.888895600072
 -696156.183381638 -394164.697465809 -871.556766688888
 -727475.662274581 -332833.642083597 -963.065692667351
 -752186.744082460 -272422.414816807 -1062.98260021537
 -771255.902481606 -212515.825825672 -1164.75787847125
 -785336.522924182 -152463.101918193 -1244.31299828675
 -794710.069223600 -91837.9377394200 -1303.48240982566
 -799413.592304539 -30596.5345313701 -1326.84340541128
 -799402.126734162 30894.6243632989 -1327.38779167439
 -794675.791020819 92134.2289747027 -1292.67810131680
 -785279.540205237 152756.402540902 -1234.99709029977
 -771175.909041875 212806.025347111 -1145.81386036517
 -752082.525622100 272710.067084828 -1045.92756581365
 -727344.724052164 333119.755399736 -938.592510685746
 -695994.798955712 394449.642705884 -848.054125301319
 -657175.509308412 456201.422339009 -782.445586170045
 -611614.372941186 515681.370888265 -763.236897112143
 -566584.188437385 564784.672451884 -794.465964726120
# End: Data Text
# End: Segment
