# OOMMF OVF 2.0
#
# Segment count: 1
#
# Begin: Segment
# Begin: Header
#
# Title: Oxs_TimeDriver::Magnetization
# Desc: Oxs vector field output
# Desc:  MIF source file: C:/Users/Victor H. González/Documents/GitHub/Intro-to-magnetism-in-python/vortex_dynamics/drive-2/vortex_dynamics.mif
# Desc:  Iteration: 782, State id: 4955
# Desc:  Stage: 111, Stage iteration: 6
# Desc:  Stage simulation time: 1e-11 s
# Desc:  Total simulation time: 1.12e-09 s
# meshunit: m
# meshtype: rectangular
# xbase: -4.7499999999999995e-08
# ybase: -4.7499999999999995e-08
# zbase: 2.5000000000000001e-09
# xnodes: 20
# ynodes: 20
# znodes: 1
# xstepsize: 5.0000000000000001e-09
# ystepsize: 5.0000000000000001e-09
# zstepsize: 5.0000000000000001e-09
# xmin: -4.9999999999999998e-08
# ymin: -4.9999999999999998e-08
# zmin: 0
# xmax: 4.9999999999999998e-08
# ymax: 4.9999999999999998e-08
# zmax: 5.0000000000000001e-09
# valuedim: 3
# valuelabels: Magnetization_x Magnetization_y Magnetization_z
# valueunits: A/m A/m A/m
#
# End: Header
#
# Begin: Data Text
 537617.011146448 -592424.729008814 943.284047137388
 587543.409714325 -542947.642057923 774.393315422799
 639027.440607332 -481293.660420407 585.311856616841
 683823.405881657 -415193.177676914 418.065734072993
 720761.766969388 -347134.546821496 285.793982736547
 750341.544259841 -277466.247852635 219.682353465141
 773094.879724962 -205728.611723742 212.746961346917
 789101.014506211 -131603.643993296 264.183561479376
 798069.841035711 -55537.7332091650 298.360893551725
 799723.678152466 21022.8165601649 282.464454224709
 794207.388579431 96096.7917905193 174.738116439424
 782155.305708626 168027.003083233 63.1404152121879
 764348.656145520 236159.121683784 -33.0768844821393
 741277.974411028 300843.751871360 -40.1627642453591
 712843.109921193 363118.025633065 -9.91088741963668
 678317.075843596 424129.623376239 84.8158200265092
 636540.749759374 484578.004078310 178.491608527510
 586617.369147246 543948.504111986 295.108620555711
 529686.917384332 599526.159130916 392.517025960827
 474709.968447451 643933.394653780 478.650477949320
 486336.484370672 -635197.868278802 701.501276436631
 538724.953571265 -591417.877465776 564.458604600899
 596399.966318838 -533204.381554606 409.470217322227
 649096.861363670 -467625.061472971 257.779426361819
 694506.244087871 -397065.544359518 174.371554225521
 732390.652126061 -321875.603935765 168.134916204900
 762645.707429760 -241601.799109934 309.201882743630
 784643.877840678 -155992.699720020 512.446292622915
 797267.231143341 -66063.9643985181 717.462878419895
 799594.392563080 25462.2299326234 694.426769818610
 791726.496835622 114755.841508219 501.047038534254
 774916.393468544 198757.522596902 174.197721041950
 750822.381568813 276162.544266478 -21.8997924754715
 720645.813150781 347375.283130865 -157.028661689039
 684791.223924170 413595.173274398 -110.817682882467
 642885.546392424 476128.312518411 -65.2539988781978
 594279.163813375 535567.241736185 70.9673878353483
 538857.544609894 591297.321997055 153.675326893909
 479078.977996509 640689.677888658 263.607184369064
 425703.635113239 677330.282466566 321.722141210194
 423047.984494295 -678992.081131010 395.697732094097
 475356.797890275 -643456.159704633 291.954910494282
 537183.636571324 -592818.451867623 154.030137306369
 597707.931477527 -531737.927849951 68.8091436873975
 653371.742286196 -461633.360675532 81.8126717804537
 702755.564240864 -382275.403896463 364.011403528111
 744582.011815759 -292569.220062019 937.631430374758
 776646.559283666 -191877.162834912 1810.06499004712
 795810.528460832 -81726.7272028426 2518.89888728923
 799332.296684166 32571.6343756864 2639.71811236289
 787085.734265988 143151.432402877 1927.25607396038
 761925.548370223 243861.456790441 1024.02772382692
 727571.769999729 332624.821827214 217.724310823761
 686810.730098041 410232.862990220 -138.365613461696
 640943.535092006 478739.264360754 -318.721016583453
 590306.858934833 539942.369591615 -223.191132544291
 534922.963953319 594859.139230004 -164.650953257733
 475695.900529342 643205.573778925 -8.90513305324067
 416018.683406221 683321.631435090 55.4061545714463
 366308.232725788 711209.014275202 129.038777503532
 355829.843097606 -716508.979269408 73.3992151821652
 405357.364102944 -689699.504808774 -20.8337843449388
 467470.526895170 -649208.206454794 -105.622453142008
 532755.322071776 -596801.270485781 -101.738667018187
 597464.173321769 -532011.742220546 260.262166956587
 659503.155419037 -452828.968318046 1230.22125968873
 716330.703668508 -356174.273534610 3195.28619583321
 763368.325918413 -239234.920369431 5954.14648389243
 793293.039252126 -103021.382063371 8529.28554325829
 798787.647516242 43115.8889035287 8905.85759642939
 778927.698453075 182279.461420197 6770.41556775610
 740520.611864016 302680.124918611 3737.02873928782
 691760.398735950 401827.519993667 1481.52503125551
 637999.594213044 482655.680482480 109.004519561274
 581733.196634585 549168.799417223 -343.045120288105
 523721.209257154 604744.437542910 -510.132467730032
 464480.960788000 651350.375041194 -354.963593505294
 405163.114502622 689813.576576271 -283.227098443562
 349069.769841589 719826.560756173 -134.954367223866
 304635.265589534 739727.886166149 -96.8883658726565
 287328.183126968 -746620.686240603 -257.018610719496
 331396.401431878 -728132.076689280 -322.512263477104
 389465.729319402 -698796.332660769 -362.140259725492
 454655.498530897 -658246.437215490 -74.4898446252405
 524570.030844909 -604007.713415917 982.279719578670
 597855.883872324 -531558.315376897 3754.92648626174
 672081.173297294 -433846.296344753 9180.83042403866
 740442.921215956 -302385.281678954 17533.4493218487
 788422.187656124 -133137.283280577 25786.0003140825
 797330.163561299 59281.5869890779 27391.6724456466
 763756.735906624 237201.909585365 20270.7288057509
 704793.486276570 378334.658360598 11359.0486083453
 637380.998294751 483448.736237726 4773.09573888590
 570111.380119322 561223.015917134 1319.34200242422
 505592.470042188 619980.791621764 -268.806048530390
 444146.819452976 665382.016099876 -612.715814283095
 385575.086739265 700950.338298810 -689.728057452401
 330529.274703370 728526.024317033 -480.059249130649
 281092.376160059 748990.595579458 -404.719929027059
 243411.046853001 762070.185544933 -307.527946746689
 218177.135024671 -769674.223093175 -572.763777325502
 254286.521014516 -758510.363604054 -627.324143449205
 303798.977725513 -740071.561282775 -515.085826909647
 362757.786457948 -713026.468183634 209.842089917666
 431033.641992609 -673945.440780702 2746.32872980535
 510037.194068709 -616261.306029512 9168.60716343245
 600517.319824121 -528069.379246287 22840.2997724937
 697132.385905917 -389741.628746423 45911.8649502279
 776151.986164611 -179982.551195138 72072.0170247780
 791531.940813896 86244.3873489433 77711.5970894457
 732129.173068819 317784.276174530 54772.5091427877
 642497.906889059 475769.260466592 28983.6236218081
 554492.714643321 576529.488076599 12311.7336559552
 477226.989577647 642059.134375427 3803.73286835073
 410484.231439526 686660.403509334 431.267782568674
 351878.901279524 718457.110472003 -786.922190953463
 299698.476514391 741741.262060160 -850.489478651807
 253139.661464353 758893.701648943 -813.259661704387
 213080.952930196 771100.611363722 -595.527373445794
 183347.349855304 778706.266000064 -548.263874768949
 148412.979460690 -786112.465311235 -882.841941152538
 174294.866614801 -780781.988986638 -886.084532260898
 210848.326936212 -771714.058348026 -628.630430854372
 256406.709842580 -757796.079657038 837.140446719081
 312950.230307705 -736227.601611243 5574.22426093067
 385233.285044335 -700895.545195804 18459.4371156686
 480847.136939727 -637530.072084105 48388.4085841111
 604982.795545760 -512434.554365415 106801.894112209
 733082.800828522 -260635.749296644 186168.239283683
 760942.173545259 135604.609932298 206345.337445085
 655154.423291772 439586.235128871 132425.917125203
 528753.657689205 596951.015196834 63789.1443410039
 428173.089911715 675294.860293872 25390.0912982737
 352932.061481762 717893.974781919 8197.61855977001
 294781.427228470 743708.265557010 1387.76919193248
 247664.248850489 760698.374993579 -634.132045560991
 207863.472100828 772522.735533392 -1183.23716719405
 173815.696449019 780888.683086655 -984.019884225041
 145252.171078943 786702.627013027 -885.125785325695
 124464.812736209 790258.155219933 -747.327859578994
 78234.5053299066 -796164.552134922 -1169.65789207966
 92125.0162518162 -794677.052873201 -1167.48334708824
 111873.687072352 -792138.728626019 -716.066751500212
 136980.222599710 -788184.307650410 1384.12072396092
 169345.532676569 -781823.302798575 8626.34126479045
 214125.306066077 -770251.688425784 29371.5811514920
 282387.449800954 -743859.135048910 83252.1194877491
 394141.436994897 -664636.740213306 207148.572773816
 552566.728433173 -396785.372352021 420988.573379527
 594188.988854104 225030.603528427 486107.676343595
 447265.912609344 605636.287141828 270477.154515480
 320462.215040069 724079.719511879 114072.470487900
 242974.468328127 761062.846177306 41794.1611850670
 194106.409048740 775988.610641301 12821.0031271694
 159955.993150971 783841.442812681 2583.17332372185
 133521.389658549 788778.470717766 -750.090522238381
 111788.549981990 792150.016581206 -1292.79670497575
 93269.3432514859 794543.302843430 -1330.23159255990
 77868.7172393185 796200.587752376 -1042.56331889859
 66627.9392084995 797220.022630236 -976.337172528187
 8372.91275455437 -799954.858246103 -1455.71304158117
 9326.83140264605 -799944.332014938 -1440.79601621655
 10090.7459870971 -799935.699106255 -1026.71359754583
 10007.6370420284 -799936.314304393 1319.18836346404
 8471.46902519115 -799899.422197707 9441.85258988890
 4515.83921342556 -799263.949588257 34010.9700652435
 -3318.20388416337 -793499.210876650 101725.079803937
 -17983.2168459812 -751304.432092406 274259.465160598
 -42113.0478515357 -500890.544416754 622362.558091778
 -50252.6092883768 297913.089941742 740758.034786713
 -25226.6147832199 708490.642974618 370681.300747678
 -6428.72752881196 787089.144755594 143001.222618088
 4309.66803144422 798474.084283515 49199.2224436637
 10347.7026842028 799800.858927962 14543.4214424877
 13321.6785796600 799885.126830219 2513.31566361501
 14374.9866541666 799870.368597009 -867.870484332754
 13985.8109437048 799875.913435999 -1708.85844178913
 12844.2891754406 799895.549091988 -1461.08808932674
 11262.3361029179 799919.638304443 -1316.07005673260
 9874.87293080576 799938.243762209 -1137.12410622189
 -60060.6644064392 -797740.440541217 -1704.73345774480
 -71788.3112546846 -796770.540808165 -1773.03904807690
 -89769.7429743480 -794945.991498822 -1504.60834560392
 -114664.301902543 -791739.893016433 199.187175386620
 -149656.222894431 -785848.845755590 6678.81528261437
 -201010.874225581 -773906.781740022 25747.2643181888
 -281014.175512103 -745179.977900196 75748.4897401748
 -409453.673339509 -660478.327696002 190042.279592401
 -584477.458890361 -388689.332750462 383805.553184250
 -630664.585920100 216733.305105505 441914.985629896
 -469540.427115504 598280.004829365 248179.014273096
 -323276.225244615 724291.004012593 104379.230204211
 -230009.777352737 765314.586492733 37270.4443708561
 -170896.507178442 781463.804863727 10426.1940379063
 -131105.431272564 789183.071804524 1202.10981660276
 -102912.896483269 793351.242713669 -1655.72404114668
 -81923.7203676238 795791.991931451 -1899.89970842899
 -66030.0857594074 797268.331864147 -1798.54973926043
 -53901.1563978424 798180.853488268 -1410.83794808167
 -45691.1678613441 798693.038128686 -1322.12867551576
 -125993.195593074 -790013.944880224 -1918.73891687259
 -149138.660400304 -785973.004238400 -2024.00159767194
 -183245.773638380 -778727.551780458 -2094.40723974802
 -228120.578291048 -766785.189029025 -1214.76165563109
 -286683.380488495 -746864.724409551 2392.23417199260
 -364499.057406224 -712014.676314505 13249.0702589555
 -468897.242285529 -646988.189091304 39263.9701683534
 -603272.056533230 -517540.583469260 90634.2665246794
 -738836.202877404 -261789.566222017 159960.271114391
 -768754.221189918 132391.138984455 177452.905642821
 -658008.744969534 440696.569648349 113185.798772619
 -520648.905027641 605087.398330608 52857.9045651087
 -408498.132498249 687577.942589097 19127.1694295767
 -324200.105325944 731350.916418601 4486.50870027722
 -260782.912525797 756301.026231045 -1015.01548363812
 -211719.450047376 771472.587139864 -2218.50475816071
 -172981.792727738 781070.895688577 -2356.96689452085
 -141810.129341364 787328.700272685 -1845.24879364795
 -117205.047188005 791366.128515541 -1620.97254176476
 -99930.9336609431 793732.827535291 -1416.68291572543
 -188910.915402810 -777372.816008589 -2042.29590107302
 -221543.122743716 -768709.106803787 -2225.73176430700
 -268135.595195651 -753722.303953179 -2447.67493441977
 -326372.454153589 -730393.907435163 -2400.23985436888
 -397280.497360728 -694382.740201064 -903.619208582679
 -482495.952395527 -638109.425376175 3743.95085710102
 -582231.590930376 -548442.295340036 14745.2773740392
 -688943.764558580 -405224.405020979 33906.7965347130
 -775583.097514519 -187971.711792373 56013.3414074490
 -793030.211198923 86132.7777960225 60697.8476960486
 -728882.444545376 327130.858763920 41422.0144118739
 -629435.895216588 493378.064877022 19711.3903897316
 -530169.190543285 599068.056493164 6171.95983312518
 -443397.153418947 665881.974477197 -400.507583790802
 -370192.621363203 709190.755976645 -2427.90558173345
 -308900.244384699 737951.348569878 -2906.22830691314
 -257218.846539474 757517.515098271 -2383.12908676199
 -213890.520938451 770873.903543346 -2066.37085783963
 -178369.024102597 779860.157666279 -1620.40902642594
 -152975.425423376 785236.380638452 -1531.58034792568
 -248982.502007596 -760265.259106982 -2109.38119630697
 -289077.112708219 -745941.903025262 -2258.36651828813
 -344297.707963043 -722116.379393069 -2650.07615754469
 -409941.173654939 -686978.739684445 -2906.09084199580
 -484359.994867441 -636700.623720039 -2776.89152211766
 -566090.715656387 -565278.534163323 -1216.74229146135
 -651231.249536747 -464641.645600879 2449.65305975932
 -730650.870071539 -325685.479057696 8847.30437264407
 -786559.791114890 -145224.654297250 15280.5361668075
 -797537.143466115 60481.8463493024 16626.8173168823
 -759312.770676726 251646.476352250 10870.4750002665
 -690609.134429501 403785.100614044 4076.26847021423
 -611474.400239467 515847.327348389 -769.882658696019
 -533072.065599484 596512.161797920 -2722.81190520764
 -460152.311837036 654406.902133071 -3384.72327201369
 -393837.365063423 696335.841931020 -2919.78117603546
 -334512.815347175 726701.141970764 -2574.22355193668
 -282119.703461330 748601.781943224 -1960.86468707432
 -237763.094346235 763849.261507911 -1736.85368495603
 -205189.647462368 773236.562646882 -1557.80624731442
 -307015.550521504 -738740.173054579 -2099.63169853909
 -352557.657776326 -718121.162330865 -2257.02366771891
 -413025.246590125 -685130.319676113 -2567.24359444850
 -481106.003074991 -639161.688591956 -3057.71834662988
 -553315.702625397 -577780.989316217 -3295.69612334253
 -626275.537734140 -497763.421972337 -3244.46947930606
 -695519.883159623 -395281.029328414 -2236.06410729479
 -753817.322786117 -267878.793805079 -629.044598587810
 -791332.652548810 -117435.670125586 1223.27111416376
 -798752.555050750 44637.1905064310 1370.04510567744
 -774699.456420099 199601.482884179 -15.9009356236687
 -727230.598147982 333363.455927897 -2112.66872407798
 -666586.313025910 442326.320143468 -3180.21931028489
 -600553.298286984 528509.064600849 -3728.88071147394
 -533454.366079166 596167.266178215 -3321.15170814231
 -467907.623167971 648886.255311752 -3013.94240046326
 -405269.579316564 689747.129184246 -2337.91844746961
 -347214.654845610 720720.349616056 -2039.87983821086
 -295932.785132344 743250.304143392 -1664.95482458029
 -257312.712744718 757487.658378847 -1617.17769164172
 -364105.801170476 -712336.042879146 -2080.28105942213
 -413228.714731839 -685009.064012011 -2147.45022341607
 -475779.045120394 -643139.349880922 -2465.12861130699
 -542507.908793960 -587943.256225573 -2810.04535098494
 -608692.544435813 -519117.096922180 -3290.29350398558
 -670922.834402596 -435718.289410351 -3481.74532442820
 -725509.215862146 -337080.742562379 -3598.70708595177
 -768204.535646387 -223274.420300454 -3213.19962255300
 -794050.333700794 -97339.7034757425 -3008.26809196067
 -799266.894536192 34123.6875886043 -2829.35395951587
 -783540.866176333 161408.115875858 -3336.33946848516
 -750425.037016414 277217.751148465 -3547.14915136912
 -705044.521481313 378017.808568453 -3841.76187325390
 -651657.039844507 464037.805572188 -3466.61518531073
 -593460.783431263 536464.117484115 -3247.95029827591
 -532416.827400984 597097.545714822 -2615.87492167045
 -470509.392062159 647005.024217798 -2326.07356361670
 -409763.118753839 687088.593824991 -1857.61802383452
 -353798.651182785 717512.051209416 -1723.59812566540
 -310206.095878899 737407.322281447 -1618.37118056270
 -421332.362273376 -680055.054120786 -2040.55529471499
 -472043.232824994 -645887.646445757 -2081.94930049354
 -533787.955657582 -595873.674920495 -2232.02411364527
 -595920.794288714 -533733.786718546 -2579.11794798563
 -653830.396442728 -460974.705095206 -2852.00805256472
 -704768.411294347 -378537.870974050 -3250.64302498632
 -746782.422842425 -286887.854117462 -3372.25347157234
 -777788.669758793 -187168.098146835 -3590.01823723658
 -795845.785365388 -81347.3142039329 -3478.56119020064
 -799550.244054799 26573.1487106937 -3643.48727325357
 -789006.795217769 132120.767793886 -3518.49651688879
 -765873.790759458 231136.321034970 -3652.08517935793
 -732409.755798979 321815.059022343 -3319.24643955901
 -690798.975910519 403468.093007196 -3205.12185657520
 -642464.050137350 476689.326680946 -2688.88630840742
 -588687.636408305 541701.701461938 -2476.56480703152
 -530594.749422372 598719.570390288 -2021.85980735973
 -470383.220167748 647098.225684846 -1874.16651996024
 -411962.396346631 685772.740441827 -1653.01640929466
 -364767.322275426 711998.597745087 -1672.54567789666
 -479213.680025713 -640585.733476328 -2041.30909199330
 -529346.142339530 -599823.914662653 -1983.17649982019
 -587308.202652020 -543198.571822386 -2094.43734083673
 -642329.814718948 -476872.572457595 -2226.82751862795
 -690580.344618206 -403847.084096644 -2514.01941878185
 -730753.196859631 -325565.070870947 -2673.93123046370
 -762199.303445349 -242988.501356086 -2968.17050504306
 -784493.630780045 -156718.539300373 -3007.10909330179
 -797087.535621317 -68126.1844217141 -3206.79797826212
 -799714.788472786 21134.4410342464 -3097.17614865045
 -792582.293116998 108641.739923261 -3206.39733142729
 -776418.242599857 192784.809912338 -2954.59391704384
 -752214.021010759 272333.401301467 -2930.03931711175
 -720670.182779096 347315.382763299 -2551.96965636749
 -682275.126869065 417725.633253612 -2438.56077877460
 -637085.706703815 483856.931024455 -2067.03006675270
 -585524.678042623 545121.082425570 -1963.89873923307
 -528763.630963339 600338.278564918 -1724.48838124225
 -470630.876527142 646918.577955819 -1712.17841220898
 -421429.298494808 679995.890615094 -1713.21824665661
 -537108.291705051 -592883.109564056 -2073.97573247310
 -584165.337369758 -546577.514702493 -1969.52718239157
 -635590.676354929 -485819.686707406 -1929.80263277148
 -681630.259921115 -418779.245670034 -2032.77050133309
 -719982.942740750 -348740.762046034 -2107.85434060966
 -750451.430090461 -277159.351221553 -2311.94844885978
 -773438.873118090 -204417.838358325 -2378.42610335251
 -789217.943609757 -130875.561335348 -2573.89384858310
 -797977.640304966 -56790.9355013254 -2544.64500539703
 -799815.794654402 16958.0275400381 -2668.31844021185
 -794954.224922645 89674.0410972747 -2519.25205594051
 -783736.755240606 160468.659253033 -2551.05516598126
 -766445.688407681 229250.307252707 -2302.89943670146
 -743221.841648656 296000.290352707 -2263.22943905220
 -713772.084061460 361283.035835191 -1995.00182184373
 -677629.264238877 425223.229554142 -1945.58336316203
 -634182.695397787 487656.889828537 -1751.18838416237
 -583679.361383191 547097.189208212 -1751.75791217926
 -528722.934787210 600374.141554568 -1717.08550002340
 -479621.467090431 640281.116268754 -1827.69134760401
 -592141.720186733 -537925.097676769 -2184.60608262447
 -633619.948428799 -488386.946709411 -1987.77185464801
 -676403.298615912 -427170.902898178 -1896.66514399828
 -712969.676344768 -362864.699712692 -1857.50242417422
 -742253.608925366 -298422.272461699 -1930.63100178233
 -764804.061364097 -234671.845146292 -1967.94731050497
 -781349.731274267 -171721.257784661 -2099.30047495386
 -792494.686371827 -109305.488971217 -2117.10962909105
 -798589.591768994 -47431.0624401271 -2226.70923808482
 -799876.180874108 13906.4127423451 -2169.55177191031
 -796530.899284195 74388.2290543389 -2217.62568316218
 -788691.663327361 134019.139846666 -2080.94994627093
 -776415.080205294 192809.057264549 -2071.39242111453
 -759503.654056150 251297.811937982 -1899.78697153237
 -737499.045535979 309986.525499671 -1873.99097158602
 -709536.721667671 369532.970098580 -1739.14209183401
 -674630.434001950 429965.941691500 -1751.14353564695
 -632062.924096909 490401.341963093 -1727.36297953156
 -583129.550341922 547682.883071501 -1840.40987709138
 -536509.353148575 593425.467318519 -1982.10037473913
 -636706.297918824 -484354.777205680 -2353.71802549622
 -670847.161659326 -435843.638711250 -2099.59247582831
 -705227.892212572 -377690.231267593 -1925.94144404307
 -734065.952017391 -318030.991142860 -1861.92413643389
 -756732.371572908 -259523.985242923 -1849.02603419604
 -773865.672060922 -202801.159208599 -1900.37610661474
 -786254.879910961 -147646.561253870 -1938.23788699114
 -794491.865925708 -93694.3852704402 -2009.26520926003
 -798966.955783407 -40592.0605808249 -2021.92581451711
 -799910.376422738 11796.8123561497 -2055.45845659887
 -797464.822320443 63606.7267888647 -2010.34042663572
 -791697.339621433 114940.648012292 -1992.45347767066
 -782551.937307732 166159.084590090 -1903.68697484085
 -769788.995522101 217764.635100699 -1861.73911556709
 -752871.125632625 270521.538663041 -1779.13126159760
 -730947.258690450 325135.339884945 -1765.15461574421
 -702876.654935728 382048.856672821 -1754.72543505364
 -667672.615247499 440692.531260420 -1836.22979238353
 -625813.369903052 498350.997716067 -1977.15097743122
 -583965.538849730 546790.092010497 -2201.07135255670
# End: Data Text
# End: Segment
