# OOMMF OVF 2.0
#
# Segment count: 1
#
# Begin: Segment
# Begin: Header
#
# Title: Oxs_TimeDriver::Magnetization
# Desc: Oxs vector field output
# Desc:  MIF source file: C:/Users/Victor H. González/Documents/GitHub/Intro-to-magnetism-in-python/vortex_dynamics/drive-2/vortex_dynamics.mif
# Desc:  Iteration: 691, State id: 4383
# Desc:  Stage: 98, Stage iteration: 6
# Desc:  Stage simulation time: 1e-11 s
# Desc:  Total simulation time: 9.9e-10 s
# meshunit: m
# meshtype: rectangular
# xbase: -4.7499999999999995e-08
# ybase: -4.7499999999999995e-08
# zbase: 2.5000000000000001e-09
# xnodes: 20
# ynodes: 20
# znodes: 1
# xstepsize: 5.0000000000000001e-09
# ystepsize: 5.0000000000000001e-09
# zstepsize: 5.0000000000000001e-09
# xmin: -4.9999999999999998e-08
# ymin: -4.9999999999999998e-08
# zmin: 0
# xmax: 4.9999999999999998e-08
# ymax: 4.9999999999999998e-08
# zmax: 5.0000000000000001e-09
# valuedim: 3
# valuelabels: Magnetization_x Magnetization_y Magnetization_z
# valueunits: A/m A/m A/m
#
# End: Header
#
# Begin: Data Text
 574857.530434342 -556353.413717848 3114.28120549998
 620261.311229790 -505241.258860054 2678.83127697129
 666908.666604437 -441845.778497425 2266.81095317099
 707142.227957516 -374093.731910967 1936.28102475061
 739784.233441688 -304493.771163126 1682.63898454559
 765149.545028513 -233546.407843000 1499.70873492726
 783603.197934764 -161134.102696939 1352.45497634482
 795203.220382111 -87466.4748528800 1205.84855186805
 799886.399344682 -13444.5641866972 995.910251172900
 797795.493071190 59344.9926742245 723.242554170306
 789469.731735503 129372.999227848 412.000320679612
 775693.778339570 195701.659521493 150.684490833509
 757114.178945990 258414.624497938 -43.4111529320771
 733962.052302823 318276.117433138 -137.299363872328
 705839.307007481 376551.247084616 -176.074468731087
 671809.354695988 434364.094207579 -156.863601201212
 630538.243539487 492363.186582922 -126.222217581938
 581046.990012302 549894.889305679 -78.1865680585304
 524391.408051863 604163.594902734 -41.8997600508529
 469495.242244854 647745.488029679 -15.7047882749529
 524106.037006399 -604405.366003407 2648.68264137326
 574271.784909471 -556961.877924164 2320.25776156193
 628673.356930718 -494738.070735291 2012.87122893613
 677600.634406956 -425269.626103900 1767.87011419077
 718868.684762721 -351034.478640854 1615.20056356339
 752139.906134251 -272549.411327578 1542.72011429673
 777135.651907281 -189888.868219046 1547.98615485131
 793263.519668958 -103589.040444654 1516.26586471881
 799846.961569756 -15587.8721519762 1362.46445909175
 796826.847259468 71175.8586050042 986.224303938329
 785116.481602846 153596.285016200 539.948877848843
 766200.882600629 230078.671922207 110.582684046704
 741473.037040058 300362.637944916 -145.152896010958
 711591.484415705 365564.590701701 -298.884846815297
 676549.254024249 426943.804108122 -308.241655651826
 635591.408010663 485822.471663743 -296.798844740021
 587936.681389681 542522.265077243 -224.882069026255
 533309.097361375 596306.443138244 -180.397925399072
 474172.238449782 644329.630369095 -125.347308663524
 421205.112231334 680136.928908984 -106.604149850818
 460791.029905767 -653962.506402165 2160.31909243908
 513271.588103456 -613635.489466530 1939.82291136795
 574290.391640513 -556944.763424049 1754.01365939795
 632893.587152911 -489329.033964875 1674.47296897998
 685475.641736909 -412456.190866889 1742.18281135383
 730351.267258206 -326470.300297982 2041.92009581935
 765903.618981522 -231052.680222174 2511.05419241363
 789822.229486519 -127169.220032339 2972.42078287439
 799786.756333287 -18229.6583007973 2970.51377983792
 794981.409200938 89437.6485429899 2337.95808166139
 777155.781342948 189808.349648765 1296.89199391895
 749591.216227309 279486.762887253 397.398627025118
 715153.929347219 358545.395741873 -237.763614840400
 675646.738778936 428370.451400784 -490.656780982911
 631479.115988679 491155.555330013 -588.675312279831
 582626.584989463 548220.760555785 -510.057988318710
 528772.117935664 600333.112880085 -448.189179568542
 470846.935057910 646763.519036610 -337.920038363485
 412123.839997587 685677.662476489 -289.286053987613
 363053.464876742 712875.948259526 -253.049548230434
 392772.685837762 -696940.962702946 1706.38989757182
 444569.912730941 -665097.823806711 1573.99554697670
 508664.901343412 -617460.618783011 1549.96561219068
 574877.074930334 -556339.214625274 1739.82461055967
 638892.155995462 -481467.794975301 2361.23041917935
 697862.876860323 -391119.460273390 3601.79062213301
 748110.418120521 -283372.994712112 5527.03966225881
 784180.234621271 -158129.983133270 7501.20414332591
 799679.585969635 -21083.7593908104 8248.32548970122
 791616.248237940 115319.192672316 6723.04448108017
 763740.654470029 238083.529693349 4055.31730555631
 723187.136271244 342049.464009337 1590.62966233987
 675955.300240807 427883.658787565 81.3567821684270
 625106.761977343 499240.479189455 -692.870033942272
 571999.729744308 559299.169822245 -864.759265783057
 516667.510057030 610781.414424915 -864.780070251849
 459631.108127936 654781.458778070 -696.908564418181
 401878.677720235 691732.011418854 -593.946347163297
 346922.070721631 720863.961350874 -475.470022214237
 303117.727486330 740350.891960772 -447.276663612431
 322609.209008408 -732066.694264223 1285.85069958731
 370581.023091766 -708990.933344713 1249.70366674167
 433314.771150394 -672485.127020170 1436.32849610625
 502891.972816008 -622169.558964884 2168.77261748717
 576054.575958251 -555108.451533779 3966.42828369973
 649940.417100045 -466389.879639413 7611.46436325436
 719496.880696578 -349489.593507030 13463.3836083902
 774346.488156482 -199944.200734741 20244.3293855065
 799294.148574365 -23967.1508362436 23546.5440261135
 785074.386264144 152571.902905297 19494.1651741017
 740464.449244876 302610.690798711 11797.0004157568
 681553.116714066 418876.467652245 5277.68363204055
 618933.495657563 506872.489142538 1267.95250555237
 557288.431132299 573959.334219182 -535.899967231147
 497432.741296073 626545.470347852 -1200.61370317614
 439563.129356277 668418.166553331 -1187.40557493185
 383356.119257444 702165.894858796 -1068.60891781689
 329922.247349119 728800.800189404 -839.254069020359
 281364.325270045 748888.233868765 -727.762498670462
 244137.784242983 761837.458568618 -655.001249120438
 250782.763498682 -759675.720798096 897.085200785019
 291848.549626399 -744864.748936096 964.299401107022
 348123.482513683 -720283.137197111 1497.72895838515
 414956.820085878 -683959.669071339 3163.62893524065
 491610.982802853 -631081.786947047 7376.97575799823
 577999.272749490 -552855.643646678 16354.7543264181
 670544.509719319 -435115.586336137 32318.5242955011
 754577.965002368 -260349.378590033 53200.5244397861
 796826.320681914 -27550.6490418787 65641.2705993334
 770200.499621975 209633.897136477 53336.8498641589
 697694.568660042 390193.183400453 31169.9934247443
 614511.182390133 512036.605580202 13947.0879894847
 536978.175204884 592988.115336326 4419.77640877628
 468134.307281793 648729.727754146 103.314212906115
 407181.684671064 688622.810295060 -1304.15097566209
 351999.208029054 718396.801648460 -1610.25717874277
 301854.394870618 740865.719997571 -1381.74880979243
 256190.602899182 757868.712533659 -1178.79121459227
 216516.359935528 770142.684538638 -954.637045288473
 186750.001746986 777896.934463100 -892.300629754470
 177148.646002676 -780139.787104264 519.419225930836
 208276.479197480 -772412.058854758 720.797374842189
 252622.006664159 -759064.699257604 1704.13905994521
 308464.893135378 -738123.336851302 4832.11118248224
 378377.460697200 -704740.163148434 13107.2377661224
 467319.834922106 -648504.381942668 32469.0389376390
 579807.858742523 -546561.634382765 71366.8463731668
 704885.155867517 -354747.863225038 131494.754933029
 779841.637986754 -33464.7076058462 175291.565704094
 728073.730429772 302361.176044120 135964.562586328
 612485.999981533 509455.431792613 72911.3354947204
 504981.258226772 619704.982425012 30978.4376191235
 420214.505428434 680673.873827401 10141.3468699242
 354164.392661836 717331.842398218 1615.81312384823
 300434.302731609 741442.804146466 -1340.86598771326
 255287.327727953 758172.020886378 -1888.66264490426
 215852.470491060 770327.504175857 -1802.02472293107
 181591.442723359 779116.463499070 -1443.68776099468
 152344.630994866 785359.520897634 -1239.49283074696
 130936.167174703 789211.301552654 -1114.28325149853
 101811.615985878 -793495.039814808 128.994727209987
 120363.172734710 -790893.491670099 437.587835403281
 147298.911409554 -786320.198226049 1891.17934308698
 182632.785208592 -778846.165291999 6626.95834456941
 230002.814828458 -765959.941225487 20101.5822470533
 298009.566434071 -740396.656891422 54800.4450509655
 402031.673574287 -678262.157160843 135391.948086207
 553647.171149941 -500235.626038905 288511.920584113
 672395.472103089 -45645.1860028672 431046.222683865
 584394.374383959 451432.141631592 307721.037126640
 433849.231412700 656451.780761161 144381.106582927
 328072.540260496 727507.056037194 55694.6293920901
 260309.625388502 756257.743945679 17695.3002882018
 213712.776538369 770918.775006938 3330.38827527744
 178983.846935308 779720.043856254 -1198.22578814194
 150664.831010585 785681.162712695 -2284.56888275368
 126935.417433598 789862.652308791 -2095.30157254543
 106257.355779437 792909.933768618 -1792.00273670111
 89053.2643638154 795026.666781766 -1454.37685071900
 76353.0820094092 796346.900724727 -1349.28639869339
 25696.2973941115 -799587.144644817 -313.717995624284
 29888.4641219474 -799441.479354454 28.2841394917783
 35519.6280801000 -799209.397338567 1641.71458462050
 42153.5217023867 -798856.030709050 7219.61272286858
 50397.6749891481 -798053.184925019 23899.5478350975
 62203.8867365549 -794483.819275012 70186.4473032826
 83233.9373821855 -772516.819615598 190499.015952473
 123704.531054840 -639859.057567098 463980.145529793
 165706.686598248 -61302.0111914112 780245.703250276
 134788.171675261 602335.366986869 508944.254760022
 92802.2810853791 766619.307081167 209003.767037204
 71459.6481270970 793385.154060776 73712.3870561120
 60341.2047322285 797416.651146547 22036.8665125073
 53303.3671585118 798211.915449188 4060.67537528998
 47256.6140793084 798601.598518494 -1516.33421946044
 41880.7868287119 798898.775446735 -2597.36102897641
 36332.5190457965 799170.625182398 -2501.98028820977
 31275.3832698582 799385.893174408 -2011.01841809658
 26466.7994268756 799560.238431072 -1712.78957965059
 22899.4873204739 799670.706940542 -1540.76009622688
 -49552.1238832059 -798463.488815147 -802.525890979602
 -59885.1833310270 -797755.250828525 -569.730574462076
 -76284.9040107582 -796354.245331544 727.573017540077
 -99949.0032565577 -793713.377296306 5410.30950254207
 -135059.968086803 -788272.485742096 19628.8879554590
 -190161.776892422 -774881.079149854 58290.7521368182
 -282600.518696718 -732407.627300068 154000.046444897
 -433760.112205236 -572098.042000034 352924.914676521
 -569518.108197886 -54273.9825388368 559198.944253364
 -464274.680480513 527006.724923926 383031.242785330
 -306741.308064782 719609.480222690 167546.906567495
 -207518.976102343 770237.931222296 60575.6045271764
 -148281.137398566 785940.850268219 17597.8456481747
 -110851.907981700 792279.574221439 2220.53333966787
 -85122.5333047851 795455.201666939 -2275.18456091787
 -66939.6820835904 797188.302299953 -3144.77958942736
 -53120.5837527322 798229.717443054 -2742.58501281804
 -42866.1991196793 798847.432040303 -2295.49464051533
 -34894.9192982321 799236.430224030 -1863.65498945248
 -29610.5329292973 799449.956343274 -1727.32231507073
 -122127.147508769 -790622.096964511 -1288.26736788794
 -145592.097252774 -786639.338261556 -1221.76796482792
 -180962.997539901 -779263.804798474 -562.185360689831
 -228933.652357493 -766540.442698020 2265.50801855149
 -293918.590945768 -743971.065759121 10904.8250647233
 -384013.919133365 -701022.544583340 33176.8277225628
 -508701.554289228 -611970.554280870 81943.6962608406
 -662608.629307023 -416877.786395639 164811.151254216
 -764636.848421274 -40065.7045190714 231787.034490227
 -691826.135116498 362183.353019645 173780.947071925
 -543298.718352311 580857.021341516 86206.8639668356
 -417144.481065226 681848.395244266 32760.4612244974
 -325421.195673550 730775.138471782 8291.10354205732
 -258715.926592160 757010.858065440 -793.787493403142
 -209075.703464982 772188.788526436 -3438.76354213087
 -170321.817945247 781650.910008071 -3511.86779090779
 -139747.143720453 787693.745079304 -3049.55487187092
 -114776.463810386 791720.015037761 -2404.40092141973
 -95106.8174485779 794323.942389320 -2041.52440365243
 -81136.1167508109 795872.792597021 -1851.63776651776
 -190922.225927747 -776882.133888384 -1689.28737162257
 -225047.944408728 -767691.507980718 -1780.81208900420
 -274613.941076063 -751388.301294474 -1674.52813592912
 -337824.363004822 -725171.967516849 -563.283346856661
 -416536.153852410 -682997.943823667 3382.49412188720
 -512818.235255512 -613873.574666230 13292.5511443599
 -625017.459066168 -498258.567492185 33039.0039666577
 -735578.179664703 -308453.134703983 61493.1320754564
 -795263.796342277 -33428.5866059280 80237.2969684239
 -757078.292341669 250730.555719511 62981.3281346787
 -657989.338197146 453832.404208581 32957.2406178337
 -551621.055286485 579296.037051770 11415.4641052360
 -458464.621944036 655598.749803355 685.333489003804
 -381659.548128045 703081.966998599 -3425.93112570575
 -318210.379875865 733978.709534264 -4172.30028573378
 -265768.476636211 754554.333150052 -3856.83172416342
 -221421.630726866 768741.080139732 -3100.50832182525
 -184388.700714238 778456.356623127 -2551.05506830787
 -153806.144837324 785072.780697187 -2097.33608798204
 -131973.998379370 789036.757282843 -1964.53769060115
 -255788.798572291 -758002.767172298 -1973.69807286884
 -297950.715893035 -742442.470903707 -2132.67372696981
 -356656.206357901 -716094.035772603 -2383.77794612164
 -427272.327985400 -676338.035173992 -2284.71331248500
 -508061.824634611 -617957.877491074 -1115.34554100948
 -596815.344268999 -532734.402049178 2345.57421124116
 -686808.104521477 -410138.836077407 8986.80725758409
 -762713.921594115 -240737.756601975 17686.3323720296
 -799097.983737261 -30621.7333908899 22466.0150267499
 -778629.186619961 182856.756470506 17320.4029001901
 -715413.889068054 357943.591052354 7704.08677703968
 -635129.307115743 486426.429190066 303.690760065743
 -554355.708521496 576781.606231543 -3567.51210111218
 -479247.855405889 640546.434206534 -4664.62368783413
 -411900.596169996 685796.704717794 -4558.36297549701
 -351539.619485721 718613.483860641 -3815.33032706273
 -298230.003491586 742326.648911914 -3164.06899685336
 -251186.151736947 759538.791695818 -2518.15107600512
 -211576.685020608 771511.861367435 -2180.39561679247
 -182418.228980770 778922.013413506 -2021.57249921841
 -317490.505918674 -734299.126097649 -2138.23846530041
 -365123.969778099 -711813.986862839 -2309.71857825427
 -428765.483443407 -675391.044265745 -2664.11958582367
 -500719.665752858 -623915.525923068 -3038.55894917201
 -577062.272427682 -554066.597335377 -3056.05264977316
 -653303.893643812 -461723.320483258 -2365.98219520299
 -722962.143854996 -342527.865496825 -632.384989385405
 -775691.989888528 -195702.826440091 1529.88435357818
 -799484.676175109 -28595.8988697188 2554.82465414297
 -787836.985962830 138967.915823531 895.500232783754
 -746652.547610164 287239.331716694 -1881.34584769800
 -688328.893659146 407659.674771884 -4113.84477809090
 -622729.644320569 502178.316163960 -4972.81199201072
 -556081.314431062 575107.535495504 -4989.42450689549
 -490756.153100448 631774.790540817 -4360.30172760748
 -428571.778900449 675508.970415607 -3723.06569269856
 -369824.845939043 709380.422883870 -2999.82587252136
 -316036.834502865 734924.687118439 -2534.46271886858
 -268686.082949374 753527.099500446 -2167.75177691365
 -233222.350133426 765247.018535988 -2082.31122159907
 -377201.980789405 -705488.278923728 -2225.75600306681
 -428054.487427923 -675843.077268538 -2343.22449029039
 -492914.146628697 -630101.893109605 -2692.27654483276
 -562062.406992859 -569276.770997741 -3131.87607969517
 -630203.461218621 -492778.767386018 -3561.44375025409
 -693169.386734532 -399377.279819381 -3740.27514280057
 -746039.401724999 -288811.055378098 -3658.60153548063
 -783316.520929033 -162493.127521538 -3348.36495985057
 -799548.250118215 -26669.4835991039 -3366.65671812847
 -792550.955997819 108849.024194672 -3856.43343139727
 -765185.629750207 233386.857531953 -4639.69343175611
 -723161.754384239 342070.114599757 -5011.35646490757
 -672261.004879933 433635.565820380 -5033.62428682590
 -616061.117209121 510340.942317763 -4563.16307701736
 -557304.019580887 573930.170713594 -4048.32109024201
 -497079.632390811 626817.698033184 -3378.23838642080
 -437215.454173205 669950.941389798 -2895.30016433882
 -379087.678288073 704476.142322317 -2428.38811229563
 -326144.542600228 730496.329484341 -2202.25838505972
 -285108.921005085 747468.001949801 -2118.77900892242
 -436131.506543072 -670659.496965086 -2268.94931793874
 -487906.961974839 -633988.483976208 -2323.49780138818
 -550868.436113270 -580118.440142016 -2561.54276072803
 -613926.928957902 -512918.140061802 -2950.84663455276
 -672152.219363886 -433820.389059110 -3356.19439317128
 -722296.300255232 -343909.773461241 -3757.97225124328
 -761883.798932694 -243961.074882991 -4008.84844107972
 -788301.131705901 -136247.871722306 -4224.12148710165
 -799623.912676780 -24138.0968458550 -4353.22364876227
 -795281.611670818 86637.3890081057 -4595.75501143197
 -776741.466234662 191443.989573324 -4679.04775314989
 -746865.080429652 286654.141473790 -4685.59609164303
 -708256.640020495 371958.887080634 -4372.43508993641
 -663222.985315086 447346.642414473 -4031.53447746235
 -612768.885927818 514297.549416740 -3510.42771138269
 -558178.614688711 573085.465498111 -3111.80638928359
 -500191.123833619 624341.041534459 -2665.23802501676
 -441083.513643519 667412.603377524 -2398.09189231295
 -384340.228563148 701625.103523351 -2191.53231224606
 -338973.184526222 724632.589804041 -2188.59910457635
 -494877.953058753 -628562.213086170 -2314.27236850368
 -545238.002394416 -585414.667160545 -2277.76606689149
 -603243.964208234 -525443.532879309 -2411.09967575085
 -657977.536655430 -455036.868915144 -2647.48649757077
 -705435.180375262 -377296.120591187 -2973.83183159472
 -744131.448479449 -293696.533378307 -3276.22731858609
 -773120.239209716 -205602.109212934 -3587.25682152484
 -791814.571283033 -114084.902313885 -3784.14691798890
 -799701.361305648 -21491.6719398993 -3980.04561792457
 -796922.179668220 69991.4376444977 -4029.66615351247
 -784335.587333040 157483.813590548 -4066.31281538831
 -763163.386439687 239930.179107073 -3892.91042237923
 -734764.776457392 316396.792149484 -3713.91909360291
 -699772.594051375 387694.431311802 -3368.16633005779
 -658756.255648747 453905.915068913 -3100.95293351271
 -611555.056247806 515744.921257080 -2754.88207957106
 -558764.174273075 572517.391954617 -2536.42630725238
 -501453.166239033 623329.252702017 -2316.20266672061
 -443614.616779442 665733.433956601 -2250.93135873766
 -395192.294696839 695570.159083017 -2281.22893938492
 -552851.091634756 -578230.030946782 -2387.84202646708
 -599208.048116547 -530042.047760535 -2267.74737931620
 -649661.848040146 -466834.380018232 -2268.22266427202
 -694552.325869464 -396977.749653381 -2394.34948506846
 -731572.825954189 -323719.926894514 -2570.84748892621
 -760377.521530656 -248632.579980238 -2804.44705208277
 -781236.471291391 -172222.512353731 -2997.02564963818
 -794295.380456493 -95313.2983052153 -3197.46018835138
 -799779.698866144 -18482.4474399942 -3291.26392272365
 -797969.708983122 56858.9927283458 -3376.16517802672
 -789351.812798265 130048.890217659 -3316.89391577152
 -774557.868918586 200123.726878470 -3256.01544366380
 -753955.623143032 267472.523009146 -3060.68066353929
 -727785.244112994 332144.788458842 -2911.69212337101
 -695617.707943200 395106.071781230 -2682.61764967698
 -657047.406381576 456379.487812354 -2543.39760501023
 -611370.106682431 515966.012029823 -2380.56404118207
 -559057.734062379 572231.616315219 -2329.65111348360
 -502839.616929107 622211.302522907 -2326.94205692051
 -453280.497807873 659189.496070707 -2449.19927629340
 -607231.280841781 -520829.914756660 -2524.17547349691
 -647153.023874799 -470305.890174042 -2309.40626725490
 -688247.694104307 -407811.496779096 -2212.38669691103
 -723257.538317467 -341897.061807899 -2220.89938617784
 -751058.024000255 -275511.268311852 -2320.69343660697
 -772076.836269260 -209502.700334265 -2444.88222650258
 -786893.724323263 -144192.576453676 -2601.44504348740
 -796036.205608270 -79492.1263028108 -2713.15621489308
 -799839.641537905 -15766.6947798235 -2821.19836853001
 -798620.895860448 46867.8267121578 -2841.04106527953
 -792687.033706987 107884.853330628 -2850.44113192599
 -782270.081507727 167469.026625288 -2764.90489377555
 -767513.833522018 225644.091977777 -2694.27315982478
 -748170.130266619 283257.663749372 -2559.70781084020
 -723768.649579212 340811.971334966 -2478.32222650086
 -693307.622053609 399147.701334971 -2377.75553364282
 -655804.811580527 458164.251844663 -2359.54221202377
 -610516.694843770 516975.555754955 -2374.88292260979
 -559000.918144738 572286.393990867 -2501.35288771460
 -510449.793024590 615981.923300889 -2697.95620636213
 -650693.530358361 -465392.874965694 -2720.56629036917
 -682680.950005387 -417062.119026644 -2430.92014435312
 -715093.649583037 -358658.592437931 -2255.30407168685
 -742309.102294487 -298282.291342099 -2207.10726045547
 -763579.190202924 -238624.794862039 -2242.22347190469
 -779383.355194222 -180433.195337605 -2334.02366292594
 -790385.992817362 -123628.654653214 -2436.82308520086
 -797095.424372326 -68061.8735419232 -2542.79662284764
 -799881.048229552 -13545.8422173835 -2611.29121620686
 -799001.451140049 39870.1169362680 -2656.09705848819
 -794653.796604543 92294.8890026626 -2645.18543249071
 -786962.683900838 143815.488583174 -2615.22296849180
 -775882.076867077 194937.237445438 -2544.84843789784
 -761156.411511043 246241.230801676 -2484.64663649709
 -742159.779453642 298651.984067198 -2419.54004883770
 -717950.249101780 352904.629624404 -2400.45919661313
 -687249.625800089 409490.039749622 -2420.57503345269
 -648999.388355977 467753.568972223 -2528.36455369083
 -603701.387969452 524916.356825479 -2729.92689001293
 -558522.386400081 572750.913418944 -3022.42745568442
# End: Data Text
# End: Segment
