# OOMMF OVF 2.0
#
# Segment count: 1
#
# Begin: Segment
# Begin: Header
#
# Title: Oxs_TimeDriver::Magnetization
# Desc: Oxs vector field output
# Desc:  MIF source file: C:/Users/Victor H. González/Documents/GitHub/Intro-to-magnetism-in-python/vortex_dynamics/drive-2/vortex_dynamics.mif
# Desc:  Iteration: 1951, State id: 12303
# Desc:  Stage: 278, Stage iteration: 6
# Desc:  Stage simulation time: 1e-11 s
# Desc:  Total simulation time: 2.79e-09 s
# meshunit: m
# meshtype: rectangular
# xbase: -4.7499999999999995e-08
# ybase: -4.7499999999999995e-08
# zbase: 2.5000000000000001e-09
# xnodes: 20
# ynodes: 20
# znodes: 1
# xstepsize: 5.0000000000000001e-09
# ystepsize: 5.0000000000000001e-09
# zstepsize: 5.0000000000000001e-09
# xmin: -4.9999999999999998e-08
# ymin: -4.9999999999999998e-08
# zmin: 0
# xmax: 4.9999999999999998e-08
# ymax: 4.9999999999999998e-08
# zmax: 5.0000000000000001e-09
# valuedim: 3
# valuelabels: Magnetization_x Magnetization_y Magnetization_z
# valueunits: A/m A/m A/m
#
# End: Header
#
# Begin: Data Text
 583091.681887933 -547726.037224494 -527.882046406407
 625809.213644479 -498359.856368011 -530.733958416126
 668910.596629106 -438814.599029757 -601.161915427491
 705476.035839772 -377230.801134801 -696.800543155674
 734805.440713069 -316322.998383241 -851.464801416491
 757741.442738569 -256567.589167611 -989.012229975294
 775198.368893631 -197651.490902424 -1173.46014110835
 787841.970301980 -138936.430865226 -1303.07679183129
 795977.963624581 -80105.7638762298 -1465.61177329960
 799722.093684457 -21028.0451303653 -1547.31733779963
 799096.687516659 37970.4171376578 -1652.70151432166
 794139.420568720 96642.6569324130 -1666.60127828903
 784887.708639983 154752.699953729 -1699.02410462057
 771241.499902483 212564.866276438 -1651.19745916385
 752865.701558343 270537.542193662 -1635.13940551866
 729032.830788229 329406.487774851 -1580.33057879207
 698749.079685077 389547.447623630 -1584.19985231257
 661101.195894094 450491.540103299 -1606.57485270724
 616757.555419377 509516.604285570 -1716.91304834619
 572780.136617605 558497.428716351 -1880.74813405399
 534725.452779898 -595036.495020275 -509.650191999224
 582314.955356011 -548551.729376763 -541.263789937908
 632789.762447475 -489465.790081174 -597.395915563904
 677113.075382536 -426048.475513192 -761.353327621813
 713838.215410583 -361156.795693879 -878.147802826574
 743319.024458131 -295762.713702109 -1115.82354189934
 766346.365254868 -229590.332148971 -1236.06002196007
 783330.954305331 -162451.323319422 -1477.69376680453
 794459.565070020 -93976.5954388771 -1548.86360663923
 799616.284373166 -24713.4456750090 -1744.52518503992
 798742.531671538 44802.9323122712 -1750.81557131998
 791915.401839312 113430.504913333 -1875.33591337567
 779305.170869503 180776.681631300 -1800.56503061800
 761067.758474595 246520.834414509 -1828.99153356601
 736982.864716567 311212.763243080 -1695.02471066331
 706564.070375709 375185.834898117 -1674.43898465071
 668949.953885212 438752.204443526 -1569.16949941503
 623736.614298874 500949.220300910 -1585.76886292211
 572403.279837982 558884.517358441 -1606.70088805454
 524144.038930630 604375.736996037 -1730.60220211958
 475966.444455151 -643005.175186876 -537.062023376597
 526154.442043214 -602628.570343236 -556.169273217712
 582914.566021053 -547914.328603142 -705.146692060380
 635831.326813185 -485507.832843331 -817.368189925666
 681850.988122555 -418423.258626124 -1098.47029545841
 720556.641563027 -347558.051318374 -1235.82490129153
 751871.702431948 -273288.389034647 -1549.03225673885
 775821.732907158 -195187.112520643 -1621.68270245086
 791863.796399940 -113790.144068809 -1879.11252296159
 799442.845036907 -29792.6329732173 -1880.56901442588
 798134.742114579 54557.0066789928 -2113.39819316665
 788099.484486370 137458.615481336 -2081.24536578898
 770012.048179591 216971.225443480 -2221.03305366606
 744497.560924346 292778.306194105 -2060.38826687348
 712039.098384616 364686.353573821 -2045.94444052019
 672507.051059787 433279.318729679 -1816.10462614793
 625876.382640207 498272.698325557 -1752.64274144239
 572534.388277261 558750.232871541 -1597.34341381413
 515535.920283408 611735.351133111 -1604.70295973435
 465317.886680928 650750.780474603 -1638.91625474185
 414869.316180999 -684019.827790016 -570.685226835897
 465043.364039084 -650948.720545248 -657.862994081969
 525225.683808180 -603437.991717178 -755.791353067510
 584853.156907951 -545844.010900139 -1049.10402352236
 640129.416419878 -479825.864884639 -1212.27952845162
 689164.081430247 -406263.935324698 -1575.98251694749
 731106.477720065 -324777.794245551 -1643.95886638128
 764554.404621887 -235484.721006566 -1873.11124356827
 787918.864871232 -138494.724028533 -1753.22454098122
 799170.746194662 -36363.6522651942 -1950.18476151620
 797158.060841383 67343.0683327363 -1984.23364031419
 782255.297484834 167543.945648189 -2382.40079571917
 756110.552761540 261325.420700929 -2420.02027260036
 720852.994919660 346935.623832048 -2575.38960625033
 677906.366215775 424779.427612892 -2323.04132293586
 628438.818953303 495035.060480424 -2222.54982440014
 573138.430068935 558129.682703746 -1896.64523093880
 513771.040787524 613217.871544259 -1777.54517066656
 454071.879387698 658647.194986741 -1612.72608448271
 404428.272434510 690242.773999049 -1638.71832115435
 354118.257024897 -717356.150603586 -642.831901401777
 401996.146369068 -691663.657501269 -695.123289389791
 462160.606533744 -652998.221931834 -946.531682838674
 525654.353877543 -603064.049952502 -1118.88536937727
 588248.840075901 -542181.746834205 -1501.84858326437
 647795.930199030 -469423.060680283 -1556.57287924025
 701909.373794553 -383823.518110495 -1654.66752624915
 747996.047333913 -283726.234074696 -1156.40418255529
 781815.998425033 -169597.050603563 -764.874656923275
 798768.048621972 -44379.2194492303 -298.967763800655
 795615.664841702 83636.4463150887 -811.607220767023
 773198.543588847 205333.305906256 -1498.55853845013
 735784.807488198 314029.972929095 -2427.58557140296
 687935.383076419 408335.373539463 -2670.47334555468
 633383.515196093 488689.443562329 -2819.65043633197
 574225.578230949 557008.911030376 -2461.36914869443
 512474.288126934 614300.420281494 -2257.79777076933
 450079.391114179 661381.145807516 -1876.60987652581
 391073.535326106 697895.725113396 -1745.51883090763
 344176.755627901 722176.984026912 -1662.71682659529
 294259.537668662 -743915.896392348 -680.871349638557
 337716.343455477 -725222.030729767 -823.108289209953
 394790.881720697 -695801.136295033 -968.731507966643
 458239.307462548 -655755.266719379 -1329.38558749783
 525297.149781082 -603374.675850846 -1380.20786763246
 593598.689671140 -536319.676997872 -1341.52361279425
 660974.988260083 -450679.448996632 -314.875653229877
 722881.538892486 -342695.633143582 1408.45757838338
 772078.250659000 -209471.823223627 4090.24873437365
 798071.996065150 -55217.4492988442 5667.66173276390
 792949.562224607 105860.978586094 4944.18654568288
 758786.553588723 253454.087475826 1997.90759182882
 705368.513336370 377432.024218890 -572.265384159025
 642458.275943850 476698.861829667 -2357.71108384798
 575926.362409612 555248.609465284 -2794.05950202114
 509295.081133777 616936.212949611 -2868.70778076170
 444189.495355140 665349.441315350 -2411.04904490181
 382655.823412017 702545.318859769 -2143.77169874171
 327308.106848831 729976.810324740 -1805.43046161262
 285126.263753161 747462.344827592 -1748.36580880560
 234754.278460776 -764780.935705315 -741.030406650360
 272097.338244663 -752304.704910585 -818.223421313041
 322743.243171623 -732007.908516594 -1104.92362783581
 382218.848402703 -702785.445219890 -1170.43273722452
 448933.319105339 -662161.337517566 -1112.69672949808
 522724.874587196 -605606.034934335 189.575610794143
 602108.075605285 -526740.419666938 3224.21773436536
 683270.081961294 -415993.133471023 9576.42947902711
 754927.999782160 -264106.486745862 18206.5593582288
 796488.336223021 -70569.3380887057 25025.9621674291
 787736.927739629 137723.742358814 22421.0496189166
 734004.843633346 317891.447395852 13487.6682698936
 658556.481421831 454179.899615257 4896.89317555012
 578588.235144039 552481.358352200 -53.1621479839352
 502271.063003888 622670.097790903 -2393.44647138596
 431853.568091604 673420.200628556 -2780.12804481837
 368193.371037862 710229.747839069 -2710.49962716686
 311311.752347581 736939.673670345 -2215.90183078775
 262716.796568605 755629.528791864 -1974.84645379716
 226784.812271243 767180.158960597 -1803.50222943381
 174896.556750419 -780647.588439627 -732.871231996238
 204332.322493663 -773464.616633419 -888.144393408668
 245666.165208363 -761345.652767066 -965.548811636733
 296161.684464542 -743160.309814311 -1005.27201404070
 356739.378041770 -716056.570317318 65.2669172187234
 429007.321517917 -675235.044414860 3217.58886205793
 515681.216346909 -611503.240568619 11690.5894227493
 616382.788419979 -509167.226296910 28652.9894552770
 720415.305109167 -343408.756084172 55427.5600147505
 790306.483713533 -95899.7560351005 78859.9936137367
 774199.451288162 188565.560818060 71121.2970809631
 687157.478836520 407446.966635790 42444.8896609706
 582917.468316905 547595.125016503 18622.6794304969
 487955.560133544 633934.682575364 5117.57392061467
 407426.472998564 688479.023123618 -551.197513567438
 340195.951589939 724058.168315165 -2546.25566346649
 283473.096192060 748088.321921191 -2620.37028390234
 235830.496159990 764446.297857008 -2415.52761269449
 196584.139470088 775468.037295234 -1999.81056173390
 168477.641257458 782056.084467044 -1888.15899731523
 114026.490781812 -791831.686837437 -734.248025719810
 134144.579503561 -788672.691287519 -786.007070290955
 162903.668978234 -783237.867445458 -915.222880690943
 199675.504712220 -774680.296423734 -362.147423535020
 245954.047057246 -761251.481473561 1669.93726528402
 306111.217953839 -739068.434931348 8588.98893618097
 386553.536707196 -699918.440771992 26278.1187771089
 496610.247710384 -623667.163201709 66464.5124330573
 637090.236072663 -463369.223728027 139301.807606948
 756453.749101631 -142593.378569482 217818.396510088
 725755.689345817 276580.517267048 191786.070532952
 587030.659281695 533185.643217096 105394.852485640
 456573.502818237 655406.102856933 44536.2421200104
 358666.517795414 714942.343333331 14689.2723290573
 286928.088439321 746770.819166851 2369.74796704174
 232485.466316684 765472.414550971 -1578.13593243742
 189945.137240626 777119.121380012 -2591.52931649597
 155700.663311352 784698.558770366 -2339.93763085202
 128633.246922885 789587.897859123 -2106.97424935951
 109559.182597819 792460.203818588 -1900.22953885826
 52048.4773552194 -798304.777916857 -661.483272141199
 61460.5500080972 -797635.259492650 -770.458821718772
 75334.4526389640 -796444.803002652 -629.297746591752
 93354.4755666318 -794534.410145260 113.959657089479
 117363.311086370 -791335.836179314 3667.09547602265
 150397.651396456 -785604.422604216 14360.9762595368
 199861.698663543 -773355.997610005 44449.9985147063
 279786.156518045 -739813.243652372 119983.628622482
 412360.613928179 -623264.979883847 285481.153372975
 568481.017717268 -226967.038375882 515087.658545630
 522580.223158373 421313.320697891 435206.842968102
 359516.606000339 684050.207235286 206937.488124699
 248020.315155388 756386.721011127 79781.2731676898
 181535.820350482 778698.631418990 25945.8543098747
 139179.330717401 787777.458785747 5982.41841800975
 110019.119467952 792398.442001840 -708.847340806758
 88296.1043432853 795109.339052916 -2221.91553282679
 71685.5878333467 796778.184970618 -2387.56191845149
 58735.0276438282 797838.358450182 -2037.23174908883
 49860.2839554957 798442.402977142 -1918.64847326662
 -10794.1529603562 -799926.942499279 -610.676365344636
 -12650.1415591686 -799899.734641596 -623.248616406327
 -15366.9161305233 -799852.190887742 -574.996274940535
 -18592.1060129471 -799783.745871100 541.695850672189
 -22832.7796677841 -799661.947487225 4408.39126901275
 -28336.3801018171 -799316.234885446 17047.1760500098
 -36939.2286106616 -797410.097805774 52655.7623345798
 -52039.4127600480 -784517.100136827 147732.254814222
 -81539.7176350855 -701363.407415050 376085.954519897
 -123532.305024462 -280874.754677232 738816.040567845
 -110453.704433312 507722.175830060 608291.189601944
 -69178.5763816664 751426.337709369 265655.384975518
 -45865.2681610919 792773.156441986 96990.2036368723
 -33862.6782002586 798676.101815351 31141.6668490762
 -26646.2384205863 799521.699174604 7418.25633067989
 -21795.9525150906 799703.024944011 -91.3748242865426
 -17916.0587059854 799796.446567883 -2158.44801433472
 -14883.7353303417 799858.471042673 -2213.75786719240
 -12301.0825521776 799902.800324697 -2047.77946883036
 -10513.2322215216 799928.773087451 -1852.00838592407
 -73821.5334299156 -796586.546762369 -504.697194920249
 -87009.6303622662 -795254.025700418 -599.025458907551
 -105875.263423151 -792962.944093270 -444.848302022113
 -130193.343373006 -789334.910697626 303.472125489641
 -161268.107380106 -783568.113159108 3689.11673904530
 -203212.229298081 -773639.472215729 13665.9025852978
 -263356.479550323 -754294.778728028 41021.3537379842
 -356253.287232547 -708215.762777925 107303.442111086
 -498882.212334058 -575518.671123151 244734.136166816
 -650606.600420460 -198485.045030723 421087.566176543
 -607851.054091854 374791.035329076 360622.761173476
 -443759.930869507 640871.998932200 179889.423645015
 -320347.071189149 729528.505848263 71874.2870248882
 -241682.721815535 762242.988249166 23981.0100041166
 -189629.139432573 777179.851002818 5680.55220014822
 -152286.062536200 785371.641627661 -582.824410354817
 -123943.452624574 790337.803284069 -2043.83257954873
 -101363.942892480 793549.264056729 -2217.33991832713
 -83610.8381046603 795616.501062791 -1900.25999213506
 -71096.2501844578 796832.554969877 -1789.56695500684
 -136537.956480714 -788262.143801946 -423.188882271935
 -160128.647608693 -783810.310365453 -462.146972395422
 -193595.705882700 -776221.888986329 -530.775164291052
 -235188.479965874 -764647.878437557 29.8711354461383
 -286551.834565009 -746916.475870446 1955.55125231678
 -350808.067888030 -718934.890992002 8143.83318741634
 -433785.708855680 -671774.835703852 23420.6940041718
 -541381.217080629 -586255.517210739 56664.3303345761
 -670076.663268692 -421976.326175097 113724.427852880
 -771364.134150661 -125225.429509107 171219.053700986
 -746095.895372573 245332.017955341 152161.479600325
 -625555.350638384 491037.216341613 86965.2542983092
 -503211.802700944 620741.267299447 38185.8703441843
 -405857.586186829 689281.014621055 13088.2625878357
 -330947.695727098 728332.424221074 2345.74533491726
 -272264.433833846 752243.671067946 -1239.92231749374
 -224706.892775475 767790.314711962 -2201.13009553544
 -185717.659503985 778141.920451361 -2025.48380162512
 -154057.255230289 785024.212476819 -1829.73660919125
 -131578.361887396 789103.542599567 -1653.40250506505
 -198675.857441108 -774937.301403606 -287.338369270768
 -231457.138291202 -765785.497783364 -405.609087766495
 -276557.461798218 -750676.882082989 -434.775677289013
 -330681.570420633 -728456.973208197 -370.362655073606
 -393432.923777147 -696570.246834189 652.467258248901
 -466164.369478833 -650137.410606286 3482.52186718200
 -549787.180051140 -581051.771995418 10625.2017580263
 -643007.452195469 -475340.753427228 24343.0596336394
 -734422.011971796 -314011.402559723 44957.1728845776
 -792939.232167798 -85995.0360301582 62066.3182999774
 -779743.560330848 169805.508499798 56267.8363339074
 -705821.584037849 374986.009907000 34660.9849878706
 -612760.987265606 514073.939297196 15873.1666891762
 -523661.170864478 604777.785471339 4775.80665716863
 -445133.377690485 664722.696302837 -114.392943786165
 -376884.981422249 705658.594063468 -1912.95653934950
 -317689.888228270 734213.055055698 -2079.59209654298
 -266318.690412150 754367.669055111 -1942.94145954579
 -223261.550561603 768213.284508911 -1621.58714193313
 -191829.282467456 776658.991702953 -1528.72331513576
 -260533.445802492 -756387.662932400 -164.261812557275
 -300791.874659557 -741298.991895275 -229.682037085015
 -354527.924518573 -717153.944004296 -413.927089120362
 -415725.581496616 -683499.872255919 -406.835890432204
 -482508.822614425 -638110.636863451 -226.320484530946
 -553572.058077420 -577543.989317496 957.558959611432
 -627584.124900314 -496110.276134720 3572.12634712719
 -700303.697809729 -386651.733856968 8669.92153475740
 -762347.953859130 -242054.900281981 15330.4434468728
 -797165.440609282 -64145.1608818096 20314.0009268736
 -789905.350726797 125358.812303224 18294.9466001554
 -744525.760273191 292490.612898034 11429.5081328563
 -678509.783621474 423795.896261989 4638.08596696203
 -606143.733145519 522101.059012168 508.868142500254
 -534357.653407020 595365.076963841 -1524.26283223425
 -465999.251170317 650262.045949584 -1992.36195594132
 -401832.055160073 691756.447947576 -2004.03811950332
 -342927.286225549 722771.123043241 -1667.35023072402
 -291100.487245825 745156.560089157 -1485.69220862880
 -252184.121342959 759210.986977124 -1358.74784284088
 -322585.746938177 -732078.162403039 2.21980732279901
 -368601.952782415 -710022.948837067 -111.936173609875
 -427486.146848754 -676206.734540575 -215.439964103421
 -491115.633267474 -631510.293279791 -429.234156080021
 -555822.699049395 -575378.969502685 -410.701197911939
 -619691.029206405 -505947.592274753 -249.384214099539
 -680424.429138493 -420740.043388104 641.966769902702
 -734737.499542719 -316474.944861495 2101.43775239095
 -776649.153680388 -191830.132070993 4158.42724607455
 -798408.935389421 -50146.6180864426 5337.46988979149
 -794146.352550900 96486.0669158495 4691.44127233762
 -765391.675374556 232744.299648325 2382.06812268059
 -719558.864625525 349621.203126892 233.801048568648
 -663954.547104890 446276.499353980 -1282.77164682512
 -603536.399030542 525110.075541984 -1795.44132126857
 -540790.873081426 589526.484437431 -1937.97282530431
 -477524.613091913 641846.895362440 -1675.35220719862
 -415428.457423878 683678.990820160 -1494.74865612568
 -357989.313369347 715431.372393756 -1266.06008225468
 -313111.770720115 736179.004686489 -1221.51353772937
 -385251.963312503 -701128.305488263 154.941988058120
 -434933.286237616 -671441.009926161 81.9261047346511
 -495639.343048071 -627966.266637060 -97.9223637974299
 -557219.188199261 -574026.763288988 -226.562410089470
 -615853.430558523 -510611.736469642 -454.586357374251
 -669565.666941737 -437814.570997920 -468.054243523734
 -717118.235816182 -354600.109341780 -445.325368336560
 -756509.923120318 -260178.274062420 -43.8906534005977
 -784957.454612477 -154407.561088487 315.479011649360
 -798984.465246694 -40292.0816305251 610.288729697391
 -796359.091147295 76237.4949166157 205.708271894563
 -777721.699077627 187480.039400513 -440.011580912399
 -746085.254353787 288713.185220842 -1220.62094023337
 -704946.739303362 378216.428059593 -1558.29759672408
 -656719.178049324 456855.428302862 -1743.21898482013
 -603003.437879612 525722.702240791 -1579.32074352536
 -544775.563070865 585847.640894951 -1458.60846094854
 -483840.941401340 637100.023972961 -1225.91905049137
 -423929.091913526 678441.476561852 -1134.86120193573
 -374988.522589761 706669.961818871 -1083.04610447024
 -448006.528329027 -662789.591202121 329.194014608235
 -499101.712405474 -625217.908178666 219.012822475132
 -557992.644600722 -573274.976491149 99.5015824610989
 -614035.305812101 -512796.870315202 -114.066529611576
 -663921.682203735 -446327.158720238 -259.400233227855
 -706922.269916822 -374513.907889478 -486.921963493227
 -742695.711114782 -297326.045274854 -550.901919221566
 -770792.470493021 -214192.733259002 -663.664300805254
 -790092.012673599 -125515.892305487 -610.154193764420
 -799331.995490448 -32677.5643971216 -733.328255744412
 -797666.495087096 61052.7863684825 -848.464561208041
 -785367.700877056 152303.003051937 -1170.33347754585
 -763673.398984869 238330.016192847 -1320.25164813546
 -733919.075005936 318371.808866702 -1477.38328675678
 -697093.424153409 392503.270891302 -1392.96148710783
 -653463.722480728 461501.203221687 -1342.69377172175
 -603217.780409161 525477.831124067 -1165.50220556254
 -547023.454552508 583750.084862499 -1085.62998541788
 -488165.988237134 633792.541061100 -991.374690053089
 -437262.888405352 669925.486242430 -1004.64235082606
 -508219.509305075 -617829.017213683 485.644400183673
 -558187.858143591 -573084.785211319 379.447451055866
 -612042.244361043 -515173.996686139 210.370925927006
 -660117.132861112 -451935.136658409 56.1851532516940
 -700630.925592739 -386155.772147294 -160.438111832383
 -733786.925142670 -318679.541663824 -313.392087583968
 -760200.529244869 -249188.451538161 -520.534180599979
 -780093.925076858 -177350.162488880 -622.834929233189
 -793345.083567494 -102970.690989302 -784.331862696892
 -799548.349015705 -26864.5331217305 -856.998490246711
 -798455.398618540 49678.2181131405 -1025.21315386187
 -790192.935533420 124875.598344270 -1099.80508995701
 -775191.811018433 197676.939929127 -1218.01076273908
 -753912.095975318 267610.030323199 -1192.98471042390
 -726417.702415316 335135.648867254 -1190.99789169601
 -692377.286253257 400764.913826366 -1085.04669039304
 -651079.611802891 464859.405980561 -1035.26131826174
 -602261.141477964 526574.409858746 -953.072701338052
 -547730.396090181 583087.053949620 -949.060191126086
 -497280.561730280 626666.652850303 -974.233347125239
 -557780.440318448 -573481.117588049 623.031397780345
 -604233.913629277 -524310.160559950 482.860069684546
 -651438.695939182 -464357.109367160 316.880474596652
 -691863.234182348 -401653.145493759 126.101979033655
 -724672.964089873 -338893.925088196 -51.5316884488162
 -750682.177805100 -276543.317796481 -247.604335572619
 -770788.107864062 -214209.070593476 -408.473767408180
 -785571.957256742 -151249.343656479 -579.668262849936
 -795212.083855352 -87391.3424527392 -703.530196677238
 -799675.256081371 -22776.6532890669 -841.947826432344
 -798900.798758126 41912.2882933661 -934.790694102166
 -792952.104393066 105952.299866595 -1034.54897842809
 -781988.183239645 168799.704378952 -1068.21118630852
 -766069.799892456 230512.198854597 -1089.89538496353
 -744979.484523093 291555.250844784 -1050.40208636490
 -718056.308710822 352695.481728546 -1017.19656774899
 -684309.625246055 414390.406219141 -963.342690966131
 -642849.946947423 476175.439101611 -947.051257460121
 -594484.181385526 535338.810192173 -957.279693088945
 -546878.977798371 583885.554216584 -1021.38112474007
# End: Data Text
# End: Segment
