# OOMMF OVF 2.0
#
# Segment count: 1
#
# Begin: Segment
# Begin: Header
#
# Title: Oxs_TimeDriver::Magnetization
# Desc: Oxs vector field output
# Desc:  MIF source file: C:/Users/Victor H. González/Documents/GitHub/Intro-to-magnetism-in-python/vortex_dynamics/drive-2/vortex_dynamics.mif
# Desc:  Iteration: 404, State id: 2579
# Desc:  Stage: 57, Stage iteration: 6
# Desc:  Stage simulation time: 1e-11 s
# Desc:  Total simulation time: 5.8e-10 s
# meshunit: m
# meshtype: rectangular
# xbase: -4.7499999999999995e-08
# ybase: -4.7499999999999995e-08
# zbase: 2.5000000000000001e-09
# xnodes: 20
# ynodes: 20
# znodes: 1
# xstepsize: 5.0000000000000001e-09
# ystepsize: 5.0000000000000001e-09
# zstepsize: 5.0000000000000001e-09
# xmin: -4.9999999999999998e-08
# ymin: -4.9999999999999998e-08
# zmin: 0
# xmax: 4.9999999999999998e-08
# ymax: 4.9999999999999998e-08
# zmax: 5.0000000000000001e-09
# valuedim: 3
# valuelabels: Magnetization_x Magnetization_y Magnetization_z
# valueunits: A/m A/m A/m
#
# End: Header
#
# Begin: Data Text
 679049.664414680 -422947.992982460 2559.00184062823
 706307.908511760 -375666.016759339 2045.04912300829
 734410.359073311 -317236.711274223 1514.43247693911
 758055.467704535 -255638.166538367 1017.68961918524
 776180.367951999 -193761.956209296 583.722405585137
 788919.207516234 -132689.321241354 167.452877199134
 796676.965409810 -72840.7660235135 -188.654511830589
 799867.379512148 -14556.1276886808 -542.530256513281
 798903.149555487 41869.8897772895 -818.511062725929
 794195.757841618 96186.8910774799 -1086.37526948517
 786104.829999020 148450.734954296 -1255.20665294437
 774853.344943104 198998.187440429 -1419.58652645871
 760403.957324595 248563.039700934 -1495.65361210072
 742395.700600763 298070.615961341 -1591.10965374435
 720052.219257033 348600.257428284 -1631.58326632198
 692214.303394756 401044.159802870 -1714.66140196161
 657434.542607903 455825.232716062 -1783.08869234850
 614531.956022788 512198.018368188 -1914.42067175762
 564144.422341937 567218.430096583 -2079.25449372626
 514185.127002701 612868.966853960 -2298.83374274419
 638456.158799650 -482046.038720207 2312.97318465770
 674643.632887794 -429944.697193503 1877.75375056055
 711807.004101680 -365142.262726836 1384.51526426987
 743193.816705008 -296077.793806126 943.835971412977
 767509.818145153 -225673.309965933 486.024498891984
 784817.290941504 -155118.686809539 113.321327330783
 795447.901985510 -85220.5238677587 -312.311632503093
 799825.826487335 -16681.1473702811 -621.776698285287
 798459.687815483 49609.7783332974 -998.412400801359
 791967.293153914 113076.802406556 -1201.38751945435
 780980.706862099 173398.370576876 -1463.07568549971
 765940.091590589 230940.370546639 -1523.59639702848
 746999.301908384 286337.683451475 -1665.52815295766
 723845.826085343 340653.102730714 -1638.18764626912
 695791.856467747 394804.681608887 -1719.25939626213
 661730.933930470 449565.720070256 -1683.57275466066
 620535.288565457 504908.765313137 -1759.07786858023
 571608.489926398 559696.845337500 -1782.01103058306
 516808.662138709 610659.613279759 -1908.78165673677
 466107.818963678 650184.062330948 -2046.01851113651
 585924.987868324 -544690.393403128 2069.76468459198
 630274.939187719 -492697.310100021 1691.64184166868
 678122.705951676 -424438.375260239 1288.90621319699
 720081.185540324 -348543.240317990 834.181921733428
 753645.221067596 -268362.949636508 456.096882728129
 778142.891500712 -185724.635840600 -6.98481416875774
 793468.668614565 -102016.396690081 -355.996350393924
 799772.726647532 -19049.0212068317 -848.823793804165
 797642.409703500 61361.4285399219 -1166.76044435669
 788094.653634788 137492.720876918 -1602.69090144493
 772300.022691134 208685.520689037 -1740.23159908734
 751274.993480071 274921.774665557 -1975.34459284673
 725505.435708229 337102.682421593 -1908.99501802767
 695027.304436758 396147.788062293 -1994.01623035051
 659305.302538028 453114.886541177 -1848.68602428500
 617686.406748861 508389.588532605 -1878.61367182174
 569582.400488953 561758.671548536 -1756.13019653972
 515513.964941384 611753.337918111 -1790.39003094770
 458581.459636746 655514.984393640 -1774.85572286001
 409327.912191063 687347.886111199 -1882.48765506426
 527984.249818829 -601023.491529491 1842.43668792977
 578374.516590883 -552702.923971261 1548.02838530224
 635979.653667539 -485312.795352957 1170.80639598682
 689468.868791629 -405748.636178085 850.415672040188
 734430.345207858 -317193.726312624 456.098431492233
 768664.625948491 -221708.503872301 179.237754904227
 790676.107183642 -121783.464905510 -284.964087081275
 799732.114276636 -20689.8245234620 -690.330217196686
 796250.392365240 77352.3481233067 -1388.12752062548
 781938.868237652 169021.526752308 -1824.78314854412
 759134.817736397 252406.129234869 -2339.74891804449
 729832.058527667 327627.020643198 -2387.82112618983
 695381.915242076 395521.876238990 -2537.19740071676
 656225.219825543 457562.158967267 -2309.01410361366
 612440.844590369 514695.018226866 -2291.30746112264
 563794.543400619 567566.424452464 -2016.59761343881
 510615.111665318 615847.651774681 -1969.14769008757
 454148.605618067 658593.870387646 -1777.04895470430
 398140.634072398 693888.219729409 -1781.57828392330
 352039.243329448 718376.757808676 -1790.25035265233
 467179.615613212 -649415.442682387 1670.19793185541
 521001.464887017 -607087.697395056 1414.65796319500
 586236.377437589 -544357.844664150 1202.79734565496
 650860.185503749 -465166.665872339 995.935358507862
 708823.435669845 -370902.049743026 1003.26547842594
 755525.444232398 -263021.587829516 973.372013859886
 786864.054884651 -144374.547099397 974.310181704724
 799726.413663067 -20917.4936351634 348.926398068711
 793812.433353810 99305.0028608312 -580.568439139498
 772185.928135233 209106.250253380 -1862.38956733748
 739386.287215629 305452.653907165 -2567.97557554161
 699430.771905613 388312.783379713 -3126.91148233892
 654747.524483892 459670.070060113 -3017.59393323923
 606680.870401425 521468.392410279 -3006.19460612379
 555631.361126661 575558.063749182 -2589.55320988141
 502083.759170392 622820.936855788 -2445.27941254907
 446642.546216803 663706.398078545 -2062.29449302091
 391034.721374287 697916.919266856 -1954.60502285723
 338508.454786323 724850.956790049 -1765.35512782474
 296931.044668008 742851.752014107 -1797.00916428711
 403892.850889182 -690556.384112177 1563.76549526839
 458398.771922585 -655643.584110732 1434.05519417587
 528290.268520669 -600755.673016708 1418.98717423083
 602600.374376000 -526183.885394181 1818.66802583973
 674499.258199459 -430167.065557921 2654.50516414481
 736986.118160280 -311182.612493497 4104.06149609911
 781470.535601710 -171103.375919191 5238.00872803408
 799766.109242058 -18660.7486731570 5093.81652373965
 789373.185993142 129932.564398359 2738.96767113206
 756236.156484533 260972.939140028 -25.7316265634610
 709576.408406891 369453.226817898 -2373.56824627241
 656482.287011817 457186.809528627 -3350.82568471241
 601073.889563743 527916.314808167 -3813.63921680298
 545010.105317060 585621.059832425 -3458.23409181310
 489120.066228991 633049.002890884 -3243.57071823548
 433663.240604712 672256.735189748 -2660.02636085929
 379435.177852473 704289.074756835 -2417.64063141268
 327562.209153249 729862.312186485 -2001.09581008214
 280636.419813877 749159.261023309 -1897.76106477555
 244522.344046731 761712.232948056 -1815.88523299962
 337182.715790957 -725468.992303287 1599.18050539255
 389347.322165318 -698860.501497066 1631.61575281812
 460103.651140311 -654446.062728983 2231.85704877051
 541142.928995163 -589194.006862015 3840.92129837550
 626960.974577375 -496856.606237334 7310.89565700139
 709132.219363531 -370095.587752035 12678.7770320687
 773041.430604358 -205101.211798932 18451.0023515319
 799653.590618775 -12839.8436890562 19730.0132930028
 780619.440621224 174455.953942701 14085.7750283610
 729080.120253185 329251.041667950 5994.14816058846
 663574.077343473 446843.843246323 153.722524561047
 595873.039451072 533784.117227429 -3136.40735172956
 530778.254182072 598546.613455425 -4049.24788992326
 469762.566321691 647537.909610572 -4217.45184070138
 412636.700172881 685359.849322204 -3581.98373555465
 359310.692939642 714762.614866017 -3198.48856931147
 309605.736674081 737657.006627286 -2535.42741417092
 264181.104746460 755118.001209478 -2268.95225666138
 224357.572853715 767893.190096197 -1930.83066985825
 194457.832659972 776004.192908620 -1908.90162862332
 265479.380496832 -754663.836909450 1786.55873811882
 311785.960764883 -736739.219804975 2199.24329613352
 378145.123048034 -704976.179672298 3853.83051524067
 460541.570875634 -654089.285549025 8286.61724532145
 557464.984907067 -573516.589091762 17649.7206525908
 663009.033650451 -446387.919780878 34012.4443637363
 756717.782946962 -253931.784866314 53822.3522938493
 797609.962765134 -1395.61374741346 61777.0148200019
 761190.992600497 241985.112456401 45071.9217843500
 679998.721622722 420821.718287762 22601.3275893098
 591149.196295031 538977.248854425 6793.59529666369
 510068.301569416 616303.004078471 -966.901207541076
 439840.375376780 668224.299263595 -4090.23985739836
 379092.017980924 704463.945627039 -4448.73181209735
 326095.647694741 730509.246918993 -4227.14092409910
 279133.437256521 749715.292503673 -3391.81241998261
 237453.939015445 763941.743973111 -2939.15997716406
 200582.427242195 774442.576692695 -2320.62215995225
 169217.070229323 781895.837209456 -2117.28541482016
 146025.133292389 786557.553771317 -1968.51523254288
 187421.209947225 -777733.089152197 2128.87287009175
 223592.033926249 -768112.758324782 3064.77787397554
 278309.583047022 -750000.487052011 6560.89978130492
 352181.498315451 -718135.031089665 15819.9041125404
 450419.153956935 -660099.196958063 37304.6367632775
 576741.019221880 -548688.029380346 79443.3330218503
 713693.262827016 -332919.343456940 140736.055605978
 780871.763818149 19226.8410242770 172828.287776509
 709650.585933747 348883.315971910 121146.513446870
 585657.031632115 541809.281498264 58724.3031648282
 475401.040247070 643083.575567367 20913.2916465629
 389932.536033518 698528.226817953 3306.61171514788
 324089.090664398 731407.731303932 -2998.64988946006
 272047.873826791 752307.874063962 -4776.71096938216
 229364.737317865 766402.313610745 -4394.42455901062
 193543.621257176 776225.338170707 -3884.72038000282
 162805.091417616 783253.107555334 -3011.92852090219
 136524.761385195 788260.251955402 -2600.90675023052
 114536.562343182 791755.491211171 -2148.95871589928
 98550.9698673813 793903.874796047 -2084.20776844710
 102739.542280351 -793371.627372665 2459.13238203558
 124146.608467539 -790298.274018822 4032.08244941693
 158072.743328960 -784168.415523117 9638.66756462708
 207714.722064354 -772145.001715828 25430.1113444962
 282777.141249557 -745492.918770841 65401.8076910738
 400523.045522464 -674579.603810746 156600.281378891
 568428.601962161 -462234.266311590 321291.779413557
 670447.574314421 55352.6080487168 432938.955140463
 550865.102290888 510781.866514243 275044.585328046
 398103.653958561 683482.357100057 119855.530693383
 294420.122421130 742694.943546659 41485.0857990263
 227713.960611372 766846.760530396 9612.38819023158
 182389.469813501 778929.489273663 -1712.32036158369
 149249.492593831 785941.583319588 -4518.46982772135
 123709.965680457 790362.392642053 -4809.64535809866
 103022.759139483 793328.914452935 -3942.66308680936
 85965.3730892442 795360.741573695 -3353.41512031523
 71616.8542696514 796783.679665225 -2606.53096347842
 59904.1921088808 797750.637112545 -2325.67287285525
 51424.8389205449 798342.608670612 -2136.61484519620
 13103.5272324510 -799888.598049596 2555.05074707853
 16060.6655339112 -799826.332198231 4460.19561597772
 21051.9929053546 -799641.778264515 11394.7377625673
 28990.4543386812 -798852.996168247 31518.9477973343
 42527.3042237190 -794206.917887703 86178.8835781582
 67838.3638472468 -764465.411721292 225810.962250119
 114265.927948948 -588892.528109141 529290.929496426
 148858.260744947 96363.5905462922 780099.529947952
 104906.812454507 656808.481199660 444519.043152071
 63160.2422276526 778510.389807367 173009.701357249
 40714.8172084103 796944.791206468 56756.5276295520
 28293.4543988935 799385.021928134 13530.2311560019
 20556.1495445261 799735.568627986 -681.899680845072
 15434.1329030816 799837.566967142 -4653.38689677275
 11765.8613638189 799899.230753356 -4773.37894549845
 9213.40826578805 799935.558717256 -4267.90438500543
 7288.12686203476 799959.921012768 -3317.82761588103
 5945.58942132786 799972.927197560 -2822.36025336383
 4908.98226357463 799981.575322982 -2319.70620903974
 4236.55134116003 799985.673827524 -2230.09045916007
 -77928.4796138745 -796192.290695168 2233.45083898454
 -94139.5894028748 -794432.037596005 3933.87189897247
 -119749.808180450 -790922.912553703 10046.3843402620
 -157426.206716394 -783873.127442369 27566.4562939901
 -216065.819763536 -766775.112271213 73290.4409277299
 -314162.245028809 -712717.121258455 182582.553557337
 -469849.231752068 -512848.245473865 395257.354816292
 -575129.280353511 69106.5833163843 551770.415138750
 -452794.261238160 567563.531568312 335930.044240604
 -314018.837510421 722374.191293248 139884.586148836
 -229297.989019266 764979.830347018 47204.7814735798
 -178503.596357167 779754.343020731 10937.5787020904
 -145046.834646017 786739.364966088 -1608.53098456170
 -120809.063568555 790811.438892370 -4736.90581161605
 -101674.454445923 793496.620047651 -5041.75426582561
 -85842.4716932501 795370.196497300 -4161.79978374123
 -72189.5311943744 796728.496755273 -3517.67594015949
 -60462.2725742467 797707.175182879 -2752.50011980866
 -50567.6348253979 798396.484178654 -2443.02258052228
 -43381.5466882285 798819.736000561 -2251.83989903274
 -166375.727274272 -782506.540343977 1622.24932030581
 -199003.878081533 -774848.426158676 2715.32464603946
 -248613.894337804 -760358.876493226 6746.14557733830
 -316665.926738191 -734443.454494551 17762.4039238098
 -410201.726332369 -685406.468505539 44187.2905337041
 -537624.984022568 -584139.365271424 98694.3691151187
 -687294.214879676 -366073.030053770 183349.935533615
 -765266.839465423 28326.5159882643 231439.566424087
 -679875.080392286 391057.603558892 157619.242988793
 -544973.218161764 580996.696769428 73803.9960261226
 -435070.277366841 670858.115453000 25753.4984573113
 -354976.509568503 716918.909979624 4353.63850016570
 -295673.574164484 743348.386020733 -3211.62593868408
 -249450.456767253 760096.718938817 -5239.03398082520
 -211684.718235828 771469.783513466 -4894.19974082208
 -179512.754105321 779587.632524835 -4277.18690783582
 -151620.296733394 785493.469684427 -3360.75908056932
 -127276.409505506 789805.351508981 -2867.45726435000
 -106769.791985730 792839.497253069 -2396.47967338568
 -91724.3482991840 794720.896238128 -2311.06286305849
 -249757.795027885 -760013.228403919 967.715796159775
 -294246.881987050 -743919.748657525 1476.48170402163
 -358365.326602446 -715235.715022631 3487.78514073882
 -439017.835917628 -668717.725728152 8941.08735958481
 -536384.293941335 -593170.396314444 20994.5266491442
 -646753.442137995 -468905.082367964 42872.0049933229
 -749774.625469205 -269821.486322332 70953.3404521538
 -795643.935283175 4808.47563696526 83232.2462099396
 -751737.124572829 267019.962632038 59930.2519180338
 -661548.785806484 448875.877622019 29387.9309756355
 -568962.318544249 562318.909818717 8906.38742939254
 -488644.859452508 633423.461526545 -959.019483306047
 -421233.108806942 680103.340319528 -4702.60896311438
 -364026.358751118 712360.441549237 -5235.59453917642
 -314176.294476256 735710.085730917 -4891.39478833473
 -269891.690682993 753088.639797758 -3996.98734539559
 -230030.398086091 766207.828282392 -3402.91568149715
 -194475.633939610 775997.232261984 -2742.86812062374
 -163863.828239859 783034.192963270 -2469.50297365225
 -141194.774847206 787438.032988871 -2319.43063386291
 -327577.847196022 -729857.888355385 465.652056825660
 -379259.018095645 -704387.873543864 566.389867223975
 -449466.287998132 -661799.356373152 1291.45548133024
 -530468.893302127 -598824.970846226 3377.50349116089
 -617559.327700531 -508485.795316063 7916.61113466838
 -703035.684597919 -381450.164006498 15381.7606713274
 -771284.903903016 -211087.609805424 23698.4809206999
 -799535.440416755 -7682.94373128876 26154.3857356047
 -777060.630947990 189298.037306415 18521.0394592469
 -720662.689978344 347251.772257402 7841.80701566749
 -652369.986060633 463047.918828318 161.728209899110
 -584343.115043618 546377.334599623 -3864.21233020437
 -520736.990626606 607295.001791790 -5076.15916373485
 -461855.935128284 653194.184386780 -5143.21592662143
 -407021.197956124 688704.490859338 -4457.43026206208
 -355421.902778529 716700.869203729 -3890.38660135105
 -306927.385175334 738772.983198193 -3171.67556264745
 -261960.420650481 755889.529829737 -2785.08642594123
 -222236.851841300 768508.223947942 -2427.22229059616
 -192234.735458671 776556.590854681 -2380.68966707549
 -400619.787967764 -692462.100538217 157.501946668335
 -455345.765675073 -657769.130709587 66.0858325249477
 -525273.279026527 -603397.024392260 115.305188949507
 -599570.840090877 -529636.115751428 626.581567104916
 -671926.845434344 -434178.323586365 1870.21720272586
 -735560.291677814 -314540.305627205 3931.08671921117
 -781400.922659467 -171400.294040285 5876.84182513899
 -799856.960436300 -13907.7144457255 5951.32930526446
 -787798.424767677 139153.987055081 3132.06325622532
 -752449.226316784 271698.217893605 -490.110918692704
 -704438.737642149 379150.660551367 -3292.64522807935
 -651452.945581816 464314.819895937 -4561.54773941490
 -597231.137772975 532250.480137303 -4939.07562282863
 -543074.895819665 587408.599907113 -4560.07517776913
 -489048.588855449 633098.940469563 -4148.41111875372
 -435151.293059969 671290.551527186 -3513.91214508144
 -381644.445496560 703091.580465664 -3121.97051881194
 -329769.788041388 728865.355556106 -2679.62034811242
 -282158.692389599 748585.454071358 -2508.03942794416
 -245327.422823082 761451.569964919 -2441.76349045919
 -469828.338476771 -647503.924361552 17.3362991519676
 -523964.672079075 -604533.703796134 -152.930039143199
 -588890.845134562 -541486.333304521 -351.228026203426
 -652753.264619222 -462507.232526343 -485.169838399723
 -709957.147918517 -368728.460127218 -413.293619390832
 -756267.871438837 -260880.940798567 -203.365254271477
 -787406.282477592 -141390.747368262 -53.6046878289542
 -799834.486819024 -16263.8627714115 -529.587293162818
 -793049.550954819 105212.498075284 -1655.28822807259
 -770538.062816951 215085.804579533 -3031.57033152735
 -737476.165364098 310021.868060773 -3917.50481492220
 -698097.422141761 390692.749400856 -4377.75794532365
 -654877.670172400 459474.711584566 -4269.25331271707
 -608727.746948740 519070.297694059 -4068.92449070182
 -559778.928000786 571519.413505482 -3621.01541589231
 -507866.924280911 618110.136541932 -3323.60129399723
 -453317.888089482 659161.825652576 -2929.15353897492
 -397425.950914081 694294.704210420 -2734.45522966477
 -343694.369831581 722404.061825441 -2559.61016121320
 -300671.866716918 741343.168623920 -2595.16851317514
 -535186.565519725 -594622.014097378 -20.9279951496907
 -585458.798184126 -545195.338234945 -196.966196861011
 -641956.261978731 -477380.278705406 -476.664917678131
 -693776.048129591 -398339.291175256 -777.269375759845
 -737157.188630558 -310802.353659382 -1084.53219385345
 -770187.226133903 -216355.771357240 -1347.92454440908
 -791393.352090420 -117020.129976129 -1688.62294742278
 -799832.176462933 -16247.3094052845 -2124.71919477223
 -795839.802568045 81433.6946880605 -2749.91234563570
 -781270.452268685 172063.342288954 -3269.04454528054
 -758671.769894480 253778.801892984 -3669.50608910732
 -730253.334380377 326674.362480134 -3732.09385444636
 -697295.759669737 392128.608853300 -3711.82776811136
 -660190.323106747 451814.870696354 -3472.73578689228
 -618611.593446726 507256.078550703 -3311.68033880228
 -572016.152672721 559274.745011912 -3046.41976068867
 -520065.527713578 607884.310168170 -2917.59067825285
 -463576.386414866 651988.741578959 -2759.49502986246
 -405985.853828436 689324.224235643 -2756.87742295425
 -357669.701020787 715586.739824951 -2828.91470368987
 -594471.429551761 -535353.826389603 -4.08607964582448
 -638111.033336279 -482508.318192627 -178.911794923177
 -684226.568522720 -414528.403913434 -453.074612640465
 -724285.274088167 -339720.786594029 -793.028980574362
 -756228.832454362 -260991.640125850 -1147.49689776674
 -779554.990417844 -179698.851095190 -1529.65018987665
 -794084.196181836 -97091.0792800746 -1900.44691492603
 -799857.527057053 -14919.0996259838 -2314.49271461048
 -797381.369753826 64620.1762932355 -2680.29575654558
 -787711.330446961 139648.672637280 -3017.96556052677
 -772154.530780257 209206.273351859 -3180.53230577084
 -751804.314836280 273458.462021527 -3277.45974368170
 -727245.622648504 333321.889809121 -3212.80448601696
 -698413.701685644 390138.780883635 -3167.48297337127
 -664693.507496406 445166.607146098 -3038.58094466858
 -625052.185911873 499300.320029583 -2992.54158611790
 -578479.109243514 552587.906044509 -2919.97639988547
 -524716.191767808 603874.319770643 -2953.64490620941
 -466194.882176309 650117.810049781 -3027.35671735813
 -413671.407105898 684737.646614694 -3212.82610745874
 -640724.206595523 -479032.869981724 23.6561258166909
 -676217.439310441 -427469.241640858 -149.075217034109
 -712801.414775994 -363199.618960188 -424.123233009293
 -743847.331667834 -294432.638912443 -753.865834641534
 -767976.491475508 -224077.790901457 -1119.00209716623
 -785179.398335680 -153268.022903198 -1491.83932253325
 -795710.107769955 -82715.8674024723 -1873.41201617065
 -799886.101009537 -13313.5147517812 -2230.63594397865
 -798181.226072882 53853.1836106043 -2562.21774928213
 -791269.764804624 117831.546663650 -2808.18747360519
 -779895.326159138 178197.585013007 -2983.44275355856
 -764646.169225129 235174.236750837 -3051.92693201900
 -745746.690348682 289572.756252784 -3081.01771375611
 -722948.733470798 342543.134970691 -3054.41605211975
 -695482.426970796 395341.488726780 -3049.76492629578
 -662124.404132316 448978.846513368 -3044.47630138237
 -621398.935822154 503838.997191755 -3102.81612438196
 -572229.892408612 559055.143164636 -3208.91495658152
 -515671.656677216 611613.506268133 -3414.88655408943
 -460667.510211000 654042.677186808 -3690.72544528452
# End: Data Text
# End: Segment
