# OOMMF OVF 2.0
#
# Segment count: 1
#
# Begin: Segment
# Begin: Header
#
# Title: Oxs_TimeDriver::Magnetization
# Desc: Oxs vector field output
# Desc:  MIF source file: C:/Users/Victor H. González/Documents/GitHub/Intro-to-magnetism-in-python/vortex_dynamics/drive-2/vortex_dynamics.mif
# Desc:  Iteration: 1874, State id: 11819
# Desc:  Stage: 267, Stage iteration: 6
# Desc:  Stage simulation time: 1e-11 s
# Desc:  Total simulation time: 2.68e-09 s
# meshunit: m
# meshtype: rectangular
# xbase: -4.7499999999999995e-08
# ybase: -4.7499999999999995e-08
# zbase: 2.5000000000000001e-09
# xnodes: 20
# ynodes: 20
# znodes: 1
# xstepsize: 5.0000000000000001e-09
# ystepsize: 5.0000000000000001e-09
# zstepsize: 5.0000000000000001e-09
# xmin: -4.9999999999999998e-08
# ymin: -4.9999999999999998e-08
# zmin: 0
# xmax: 4.9999999999999998e-08
# ymax: 4.9999999999999998e-08
# zmax: 5.0000000000000001e-09
# valuedim: 3
# valuelabels: Magnetization_x Magnetization_y Magnetization_z
# valueunits: A/m A/m A/m
#
# End: Header
#
# Begin: Data Text
 583072.725556654 -547745.835315032 -834.629841659727
 625692.563223435 -498505.955138092 -793.107020992580
 668658.766469697 -439197.898507183 -812.385437562382
 705056.147454489 -378014.649249551 -868.268030895350
 734249.259982570 -317611.521647002 -972.384761581008
 757064.003338074 -258559.351652976 -1075.41737079192
 774487.238081452 -200419.720597592 -1205.67182458347
 787176.395609846 -142659.127003182 -1302.18177700730
 795496.766080298 -84752.0890130489 -1406.61427223115
 799554.563085424 -26652.9278858531 -1456.73758398905
 799375.713615193 31562.7038498140 -1504.72851022975
 794972.426411274 89535.5301308719 -1493.34857084060
 786336.833225799 147214.816403712 -1477.34344122114
 773369.009710580 204690.934425735 -1412.86347441932
 755696.727051544 262527.359370820 -1357.31550048804
 732644.291446898 321295.330169891 -1285.69875718917
 703203.776488954 381448.406605329 -1249.73194265016
 666525.653343358 442427.410813756 -1240.80451602685
 623235.180276040 501573.747273827 -1298.50374798901
 580279.397813297 550703.033786551 -1410.33745192563
 534821.590254373 -594949.785357654 -787.083644988350
 582308.423176696 -548558.380147484 -777.089081103544
 632574.550130654 -489743.597194233 -804.695130628941
 676713.097805431 -426683.192800794 -914.461534027302
 713183.710046750 -362447.197061091 -1012.45568395122
 742520.126205512 -297762.422280857 -1184.08495792767
 765415.114940864 -232675.814675883 -1291.15645002720
 782463.786776457 -166578.223175181 -1455.31688888080
 793792.703980508 -99452.7247004709 -1516.13223871038
 799387.353800694 -31260.4727669483 -1625.24641547776
 799137.017312835 37113.2330012083 -1623.42124684818
 793063.386363539 105108.016708844 -1664.34165028624
 781314.249029496 171888.060594502 -1593.38900901070
 763916.368416125 237548.651147397 -1555.76475428898
 740733.081413446 302179.492446838 -1434.03079222538
 711151.348567660 366417.664079371 -1361.94016613532
 674450.691171179 430249.549965785 -1260.92543689771
 630087.363666307 492938.533354269 -1231.45547409636
 579598.621920511 551419.911270099 -1232.44582889402
 531935.399622041 597530.763881029 -1310.28420299992
 476324.069819365 -642740.039917207 -788.414830213057
 526351.878133657 -602455.873228910 -788.160619858147
 582923.366320780 -547904.695465592 -890.889447156516
 635478.663014767 -485969.006459221 -996.801887889380
 681230.291470440 -419432.737383351 -1211.93820275261
 719554.845904969 -349626.938066335 -1352.00334169403
 750713.432908412 -276454.047493467 -1581.54207888801
 774585.528081260 -200036.228367154 -1663.43852260324
 790925.444377065 -120140.051677976 -1819.18106751559
 799096.797056515 -37960.3681651097 -1821.91733835086
 798717.819821072 45234.0234073047 -1930.65446423408
 789839.396306248 127083.117477802 -1899.81438707012
 772913.671459220 206399.413302508 -1933.56143154608
 748601.225764355 282122.241072919 -1801.63151020467
 717133.688503668 354564.987837786 -1715.28793954176
 678592.590338099 423685.940489204 -1523.21042781340
 632695.817445965 489585.554367149 -1409.80189918698
 580039.808650077 550955.708174852 -1275.93523689427
 523420.588621722 605003.586562586 -1244.04714422267
 473388.831345232 644904.191410767 -1264.22245655643
 415609.710586338 -683569.969476383 -815.657034396059
 465687.620039994 -650487.726611292 -870.671902228711
 525541.812191591 -603162.384561690 -970.303166623189
 584869.755267496 -545825.892816157 -1210.00197720410
 639565.050871337 -480577.370087914 -1391.78422508640
 688183.785473725 -407921.857434366 -1683.93537631362
 729598.096358138 -328151.514157733 -1789.28660868856
 762935.814381380 -240676.518319931 -1938.21144753815
 786514.871615567 -146256.367832212 -1852.45676786969
 798660.822160395 -46230.2844635083 -1911.00615041131
 798075.427804420 55425.2370446559 -1911.70953242886
 784864.444268666 154865.349989794 -2127.79119689550
 760481.801108809 248319.856567244 -2163.10349375250
 726631.536131657 334666.618388924 -2205.72778711873
 684943.117874152 413338.711120313 -2008.77232031680
 636229.389974714 484983.249921781 -1846.78848567656
 581548.079359517 549362.659331860 -1581.11513953454
 522322.620788032 605951.360335866 -1424.33150485822
 462616.151361136 652674.987708469 -1287.21387571123
 412695.722226580 685332.468881253 -1283.72622054638
 355439.582685345 -716702.118933963 -880.781491752724
 403185.720855796 -690970.626276964 -931.729796961109
 463197.080781917 -652263.098812562 -1146.42162640315
 526148.477218911 -602632.520660195 -1350.91190022107
 588246.210778562 -542184.051082000 -1688.27040952452
 646885.283183965 -470676.240413682 -1818.54613430096
 700330.196428948 -386696.255136410 -1903.21655868556
 745794.267982461 -289462.482587409 -1543.05503461721
 779840.553157239 -178458.525730921 -1125.27568023751
 797970.219758735 -56948.1508601621 -660.675264580367
 797041.428502679 68732.8031101184 -873.514187162959
 777306.431368873 189189.779944901 -1392.44999470917
 742204.476610630 298543.483556125 -2074.44578499014
 696231.710795460 394025.387200849 -2323.60152541993
 642683.422073249 476395.159763276 -2381.33289178590
 584178.513542989 546562.907896666 -2109.98252201294
 522360.966494867 605917.104273287 -1866.39535601206
 459742.660938323 654701.656400721 -1557.82524810383
 400085.221304695 692769.696680492 -1401.09057244784
 352621.782325159 718091.989584497 -1331.58717569671
 296285.673420470 -743110.977607443 -935.246005049259
 339818.187061552 -724239.249097561 -1053.47463243752
 396663.290551130 -694734.995992656 -1232.58761709830
 459878.532138685 -654606.185862386 -1573.88330803976
 526090.089406424 -602682.516278531 -1732.74363904031
 593509.833304922 -536416.789116206 -1762.42010400365
 659454.611667390 -452900.142977064 -1037.13160593218
 720320.668672044 -348048.812987596 397.569847071937
 769184.640202132 -219881.345033940 2680.18342336835
 796847.024691867 -70822.9942114438 4350.02651075401
 795330.551061833 86210.6179575328 4128.42573651568
 765232.542178534 233271.278959353 1914.88998287106
 715103.741151887 358645.412406809 -327.948355797212
 653944.247177132 460818.200979248 -1872.76004410610
 588263.376157871 542162.880202633 -2368.88195739124
 521374.908867702 606763.918655023 -2398.21216641658
 455758.662154824 657479.901965014 -2054.35705763494
 393138.885924800 696734.307148203 -1766.80970122777
 336806.017220473 725644.182887708 -1492.18139375045
 293654.463630924 744153.919285018 -1414.35581860968
 237714.731791666 -763865.626908076 -1005.14553612462
 275194.406535525 -751176.964945733 -1098.15594425103
 326067.010284332 -730532.957400556 -1379.47665229903
 385250.927097916 -701127.158714999 -1559.00045841966
 451588.315650826 -660352.470974284 -1614.69681586154
 524056.520387227 -604453.663390396 -729.557099846827
 601776.158078853 -527126.835047110 1659.92200774813
 680600.702774565 -420400.184762568 6809.40778384349
 751033.472329347 -275221.092146652 14215.2692035280
 794548.029477196 -90914.4783023048 20687.8343217578
 791936.857550370 111545.082311977 19842.0831885047
 744748.969250621 291869.713837606 12690.2696776338
 673126.066512118 432290.088439295 5155.38738311816
 594639.342977878 535167.124034118 448.481759265935
 517866.829971440 609762.857270018 -1790.05844476398
 446435.893551456 663844.558426188 -2322.75630509628
 381059.946982021 703411.855392573 -2253.55258146093
 322666.465964715 732040.180262832 -1877.82390058924
 272429.996110025 752182.993663915 -1625.19607527351
 235370.511238792 764590.426153744 -1484.14056832873
 178876.756123139 -779744.858399203 -1030.49447791807
 208836.730452508 -772260.208592223 -1179.08396741226
 250543.790696797 -759753.909302321 -1343.96544596570
 301555.295677694 -740987.311383005 -1485.94014829948
 361910.881185149 -713456.274011544 -811.882597969985
 433597.875024719 -672302.253565758 1600.81993144010
 518120.321919775 -609493.116799959 8335.02172884441
 615509.257257465 -510542.268211850 22247.3953411074
 715903.077490310 -354227.122734365 44787.6005076979
 787735.387780536 -122679.586911315 66503.2164148301
 782914.105158135 151403.881511075 64205.6742649542
 705783.831122882 374448.237844577 40714.8732111493
 605174.914205436 522880.460402291 18956.4592139887
 509498.108607119 616746.202994154 5983.17792334995
 426874.537446266 676593.010239787 166.657432097069
 356790.331002913 716028.636927459 -1910.70736557293
 297644.685932335 742565.049608718 -2188.15809411799
 247548.877008245 760733.551215041 -2004.38212667378
 206486.099010175 772891.106593127 -1681.74457411441
 176943.226357772 780185.023787622 -1556.69637668155
 119190.322084192 -791070.515770916 -1051.76014461433
 140017.008213706 -787650.895969722 -1141.70441724826
 169932.660403870 -781742.362022221 -1330.54424326281
 207651.878129365 -772579.826596562 -1053.11223280723
 255156.491171068 -758218.282951470 447.673311171152
 315698.080702999 -735050.946213350 5901.55160119937
 395653.889948339 -695014.733478615 20310.5789281994
 502348.473058574 -620323.009607886 53342.0600158404
 636897.968347444 -470455.618337462 114159.927687492
 757279.875115329 -179829.450627398 184901.485749463
 747963.671199683 221643.497669687 177269.587087690
 621265.574227368 493200.780072510 103836.779687190
 489524.783449600 631050.695344996 46265.6059424281
 386598.059719636 700196.152998582 16348.9310659841
 309462.283786443 737712.902782554 3573.23128513504
 250787.472018631 759674.220606558 -849.955482766244
 204535.244844729 773408.837396466 -2025.79696760756
 167635.777717290 782236.783095640 -1964.99397057153
 138284.555611619 787955.792284231 -1746.73553395601
 117788.681652886 791279.548256384 -1582.08269330120
 58325.4728828360 -797870.359295386 -1014.38200080204
 68924.2370713603 -797024.562924685 -1138.26132610557
 84287.0276623646 -795546.598472538 -1143.07769546194
 104544.979464862 -793139.276118122 -660.263215085173
 130936.337930671 -789209.286425645 2092.27838226071
 167311.768618115 -782232.736258154 10895.7977202846
 220239.795390752 -768243.710920772 36000.4605098513
 303642.515763525 -733442.029139831 99317.7351334897
 437604.163392106 -625813.797672668 238452.693053382
 602054.595333203 -282533.462912783 444640.423907548
 586912.340354497 344084.513651496 420879.736034917
 419433.141681442 646688.920291944 214171.146588131
 292323.833055539 739664.390282816 86274.9463938833
 213608.005651558 770385.508869120 29627.4812636929
 163237.606553235 783129.744046535 7828.65227098994
 128300.903601867 789644.708777439 334.715907197920
 102736.701699652 793374.090794463 -1649.90300809513
 83011.0580957872 795679.216808614 -1936.01979507688
 67971.1439652550 797105.384865176 -1711.43419273509
 57570.9765971599 797924.217515398 -1589.26274996374
 -3444.92066951524 -799991.987248754 -976.145158323237
 -3967.59413388015 -799989.489276179 -1036.93993465152
 -4448.71565971956 -799986.899701130 -1081.31195911109
 -4964.17451430743 -799984.542462069 -297.981787046471
 -5048.21965571211 -799978.842843557 2892.48699054860
 -4926.66389926443 -799867.089441622 13724.6934761090
 -4084.19609988826 -798721.513826321 45025.1340165499
 -2659.18791614251 -789390.807419875 129827.123054564
 -166.371515775833 -724701.510412608 338832.839503796
 3050.32277870132 -372093.468825544 708192.873437963
 2563.98928946987 447946.167960651 662825.509895546
 -667.173643947227 741183.929047386 301074.638920664
 -3013.13960104027 792080.936431114 112243.980382710
 -4340.57425632286 799115.864497596 37349.6254784890
 -5102.51175882679 799920.159155864 10084.8078717319
 -5185.14526681432 799982.448829050 1093.54196944288
 -5053.28156753987 799982.694386724 -1467.31971869459
 -4524.24329179408 799985.161224240 -1809.15551120491
 -4017.36264432449 799988.129681654 -1689.13168016001
 -3489.38519170306 799990.906013122 -1540.93714609745
 -65680.8325744977 -797298.711803451 -890.162275293066
 -77249.3553858881 -796260.973374155 -999.686804342717
 -93886.9282610252 -794471.080387745 -973.205650550365
 -114876.781209163 -791709.004798297 -420.547635479694
 -141809.478639006 -787327.205145684 2437.99212872927
 -177533.146254829 -779968.618914197 11442.7046601732
 -229071.248855589 -765614.662124241 36885.6623653010
 -309500.324721046 -730782.685583420 100827.652204404
 -439379.309072253 -623573.030522081 241044.598289811
 -599417.795940870 -281717.234732455 448702.245998490
 -584814.122176093 342950.067705848 424708.951593865
 -421939.183051427 644263.852518497 216544.254469885
 -298794.084813986 736912.551339600 87646.9426639290
 -222894.626469465 767718.183876925 30442.9899279606
 -173810.906899935 780846.007868232 8323.49919607124
 -139411.622781394 787758.825991580 656.891031158644
 -113262.447870820 791940.373765830 -1436.07170707985
 -92734.5691640889 794605.021117839 -1777.66596134203
 -76404.3002530653 796341.547153986 -1588.45183569621
 -65005.5289167961 797353.185134033 -1476.26788246753
 -127796.648720870 -789726.132048732 -808.043973530828
 -149887.788163771 -785832.600218250 -880.564362542112
 -180978.423254080 -779259.781146791 -1001.89995687787
 -219802.202801467 -769211.675085353 -624.944804217673
 -267386.406294831 -753991.625319028 1067.08833079161
 -327395.708718946 -729908.111250195 6796.98783221736
 -405311.416128272 -689385.865759508 21674.5022343656
 -509044.660551363 -614659.973669528 55377.3449410681
 -639604.077942601 -466035.949819616 117120.096289767
 -756745.502210225 -178125.523479923 188699.609881945
 -747709.845553046 219510.092420904 180956.641736099
 -624486.918102614 488518.075626852 106612.283084721
 -496713.324289788 625264.146448061 48172.8205481623
 -396667.729985057 694510.544790305 17601.5670772313
 -321459.154342177 732560.264013163 4412.67249827838
 -263254.916465021 755444.745977409 -291.087824519763
 -216837.415766130 770051.230382993 -1624.10267715812
 -178808.230560101 779759.460472038 -1673.46596093654
 -148234.745549954 786145.147357687 -1505.82127132327
 -126465.421489937 789939.640766802 -1364.22600359214
 -189634.445613898 -777199.017052970 -681.856735731400
 -220947.773005018 -768883.241813968 -801.287566849102
 -264194.255475370 -755116.268339788 -903.693758204180
 -315920.879699150 -734978.352833189 -904.785459916179
 -376349.042361144 -705947.162162154 -50.4881398889226
 -446568.913039954 -663753.767860383 2672.36925927197
 -528667.150759180 -600345.755906614 9798.83018961590
 -622309.916045372 -502136.978840307 24265.6727236361
 -718824.000479085 -347918.756199437 47377.1613742372
 -787806.198017619 -120519.010473579 69545.3986939006
 -783166.010157085 148790.383423364 67174.5661345175
 -709103.032564936 367838.560308364 43216.6953558646
 -612410.924610961 514313.266147421 20850.0283433788
 -520415.124679125 607547.270010233 7376.49702254507
 -440146.466076579 668034.257055057 1148.82600820401
 -371431.068576091 708546.079330866 -1189.43738051632
 -312166.573638974 736579.423757533 -1668.17251016996
 -261288.024234812 756125.670790046 -1593.22433171076
 -218667.815995561 769533.995414360 -1347.64585193255
 -187745.854265877 777656.705926028 -1241.74645397520
 -251325.888030571 -759496.535138672 -557.779523679035
 -290457.812316985 -745408.514925938 -636.506040942765
 -342647.443717458 -722905.271933867 -834.939586236587
 -402461.867726350 -691392.521495893 -908.980620521056
 -467845.878987715 -648937.323419398 -764.059866142968
 -538257.217599261 -591843.770687556 344.674682156069
 -612423.686499253 -514711.331023712 3077.97505887307
 -687243.744957927 -409417.297225329 8573.89928273719
 -753685.171607931 -267751.161303384 16370.0250156502
 -794783.910039037 -88244.7713334640 23052.0427590600
 -792305.817997295 108436.582907243 22203.5640165968
 -747722.297415138 284066.186453429 14756.9530063944
 -680153.706326751 421121.974122301 6871.58506603355
 -605654.055859411 522666.268302280 1771.04489351538
 -532355.670658915 597157.321684325 -757.017898867260
 -462916.805535112 652461.206954304 -1550.66853293033
 -398403.422632699 693737.723035089 -1638.43603496327
 -339336.407002020 724464.529172744 -1396.01342136688
 -287730.028283202 746464.991626251 -1202.95493236876
 -249003.911982040 760260.393822809 -1088.76169450608
 -313381.709846084 -736065.037998168 -404.685926052431
 -358523.197523493 -715164.919395550 -504.879677398498
 -416569.130109422 -682985.908531530 -639.208292095862
 -479416.959197887 -640436.289052036 -859.592175298104
 -543905.338913718 -586656.779386999 -897.496756151281
 -607953.759074238 -519992.037179686 -712.809387490553
 -669872.647015507 -437344.936457248 208.172152112940
 -726304.871268373 -335376.733367536 1918.51180697406
 -771557.160298555 -211377.104774414 4389.52949814817
 -797072.342987829 -68095.1138167134 6223.78648269322
 -795653.549824136 83066.0537811422 5954.77635848407
 -767864.836341629 224433.749412869 3617.35186640632
 -721429.172062324 345743.710497973 1111.91212030658
 -664705.178223903 445159.072406511 -652.913857566228
 -603014.605471700 525710.396590210 -1401.60792485313
 -539413.422141347 590788.131477588 -1594.90406643639
 -475453.615394818 643383.131532113 -1416.21606012823
 -413114.996986977 685079.936972903 -1216.23256573915
 -355536.249625666 716653.994880485 -1013.32322533212
 -310739.023090263 737184.079307970 -944.851188339828
 -376093.053304813 -706083.525411514 -265.326801015087
 -425359.858494114 -677546.222307894 -327.747111855407
 -485718.000136220 -635671.126874309 -492.749447453868
 -547365.614041191 -583429.916750276 -645.605201480834
 -606314.160650719 -521902.677637458 -856.544958884512
 -660919.291124502 -450760.360020989 -887.948892157744
 -709744.902292777 -369136.215189680 -792.656832850889
 -751064.698867050 -275502.665506340 -315.300886566871
 -781788.131179781 -169726.973221951 269.271870001848
 -798178.897782213 -53943.0542085704 770.738491348991
 -797326.276239126 65348.8083179601 585.209425473723
 -779457.857809242 180126.190056791 -59.6242609310192
 -747760.872961681 284346.542478341 -848.910005243890
 -705964.977412271 376313.418770989 -1288.99968218442
 -657011.748786600 456435.535584015 -1470.99031526960
 -602495.846085145 526304.959858516 -1358.18940925791
 -543740.117641166 586809.373965647 -1201.28831535351
 -482350.286532521 638229.759349808 -987.604314120658
 -422262.472113077 679480.433241206 -863.416062676010
 -373234.537495193 707598.286037103 -803.503643525667
 -438976.325334925 -668804.732704262 -123.724808536612
 -490080.353788951 -632314.168373631 -198.252513897446
 -549296.622824721 -581612.522877902 -305.589524314060
 -605859.808766864 -522430.522065801 -491.665570767392
 -656592.639508322 -457040.146088390 -640.786234220909
 -700575.243764111 -386255.928016690 -828.188880518427
 -737647.803480726 -309636.794984766 -879.324525931210
 -767182.099064640 -226783.619646519 -903.733808564001
 -788091.438949769 -137518.259332979 -782.434732557743
 -798816.954798312 -43484.3827099336 -762.356273069191
 -798284.887072421 52350.5920200616 -809.065461742548
 -786594.577280044 145835.138654888 -1040.83002352495
 -764954.932010081 234184.801878220 -1196.06133290232
 -734946.085526779 315994.544079315 -1303.64142690825
 -697608.957563677 391586.804437853 -1231.63187294300
 -653496.011192048 461456.052164080 -1129.28172887329
 -602723.197286706 526045.473301112 -952.613195241279
 -546169.473021303 584549.589398718 -827.208209635902
 -487011.368442404 634680.555126461 -721.077127752690
 -435988.183253390 670756.151177157 -699.800983968273
 -499351.069708121 -625018.806940484 -12.3308388068724
 -549880.198413780 -581060.893575456 -73.1417474268025
 -604529.178023886 -523969.879661267 -195.257574964113
 -653550.713170663 -461379.843297123 -324.828017624043
 -695015.179044263 -396173.760759267 -502.179179777598
 -729213.627042720 -329009.237597819 -638.522123806814
 -756671.196794642 -259707.659300476 -794.759103162008
 -777688.200439631 -187617.465108653 -865.842463436206
 -792022.003351828 -112695.375792687 -947.882640927587
 -799213.629347481 -35449.0531933388 -969.171255624369
 -798869.939094245 42493.7665907789 -1048.91014156821
 -791035.458179116 119422.449920980 -1087.36296893724
 -776169.935730694 193801.277319464 -1138.32207870919
 -754751.632062670 265233.438930424 -1093.97069249268
 -727000.376234735 333870.310577514 -1033.76468687053
 -692582.969964727 400409.795648094 -908.440360547806
 -650934.180860945 465063.482849779 -805.671473981564
 -601747.509630602 527161.689687165 -698.268961169770
 -546946.535485333 583822.806337412 -646.622687593706
 -496311.552834436 627434.805934775 -637.828082046379
 -549106.421454809 -581792.174084482 63.9620732922108
 -596620.723842893 -532957.514062969 -9.21972229713275
 -644977.120503373 -473291.136713668 -118.048562177620
 -686470.666733592 -410801.602670035 -258.762569127910
 -720276.761133372 -348139.666031326 -400.383336950083
 -747202.677041849 -285810.866701310 -554.884619765057
 -768200.305337824 -223311.052880802 -681.571817247544
 -783832.866214609 -160016.859375857 -801.596705419792
 -794277.736781695 -95509.7091472789 -878.812580513185
 -799436.622921116 -30002.9979044123 -951.866182055499
 -799194.913563436 35867.8824949442 -992.542019957193
 -793575.989026197 101173.562911204 -1029.47022629548
 -782730.034548594 165325.898100242 -1020.01612977281
 -766766.249550466 228185.326716991 -987.532972372085
 -745495.988981273 290232.496758216 -910.076000233671
 -718329.186761615 352139.881990018 -826.413004066716
 -684286.157304311 414429.629267906 -733.011982881253
 -642532.864040949 476603.688542878 -665.353034338407
 -593884.112922006 536004.912979892 -627.439449111831
 -546073.549201955 584639.435653234 -639.641344154802
# End: Data Text
# End: Segment
