# OOMMF OVF 2.0
#
# Segment count: 1
#
# Begin: Segment
# Begin: Header
#
# Title: Oxs_TimeDriver::Magnetization
# Desc: Oxs vector field output
# Desc:  MIF source file: C:/Users/Victor H. González/Documents/GitHub/Intro-to-magnetism-in-python/vortex_dynamics/drive-2/vortex_dynamics.mif
# Desc:  Iteration: 2882, State id: 18155
# Desc:  Stage: 411, Stage iteration: 6
# Desc:  Stage simulation time: 1e-11 s
# Desc:  Total simulation time: 4.12e-09 s
# meshunit: m
# meshtype: rectangular
# xbase: -4.7499999999999995e-08
# ybase: -4.7499999999999995e-08
# zbase: 2.5000000000000001e-09
# xnodes: 20
# ynodes: 20
# znodes: 1
# xstepsize: 5.0000000000000001e-09
# ystepsize: 5.0000000000000001e-09
# zstepsize: 5.0000000000000001e-09
# xmin: -4.9999999999999998e-08
# ymin: -4.9999999999999998e-08
# zmin: 0
# xmax: 4.9999999999999998e-08
# ymax: 4.9999999999999998e-08
# zmax: 5.0000000000000001e-09
# valuedim: 3
# valuelabels: Magnetization_x Magnetization_y Magnetization_z
# valueunits: A/m A/m A/m
#
# End: Header
#
# Begin: Data Text
 564517.945272613 -566850.050991992 -713.551374504040
 609832.929581359 -517786.947753168 -689.009924551269
 655702.888402949 -458315.624914480 -714.212349940971
 694810.093945602 -396532.885714434 -777.108928761972
 726420.209737948 -335131.207844130 -867.417552855742
 751391.391835276 -274608.901162082 -963.160630134048
 770694.882780612 -214542.021882368 -1057.59274017801
 784982.861674833 -154274.539628715 -1128.40557309242
 794531.501110569 -93371.8771313356 -1177.41409726220
 799366.877501246 -31798.9746399424 -1191.79098651565
 799434.044882080 30063.3445956707 -1184.56540514331
 794728.394433371 91681.3397103854 -1145.00229871921
 785297.768080717 152663.818968305 -1083.43225748975
 771114.213728728 213030.248931150 -991.173979599665
 751904.874024781 273200.063403467 -886.439010750547
 727024.466962714 333818.555839703 -772.149388284371
 695509.950753500 395304.261466209 -670.275703196614
 656510.284810970 457158.506510650 -588.100647729390
 610762.141363098 516690.729019965 -545.181052275719
 565568.778886881 565801.781395109 -548.195698527084
 515391.677148494 -611858.595614101 -691.447179412295
 564572.302938096 -566795.943943140 -687.520750005482
 617228.959781773 -508947.810622158 -732.986781548136
 663947.633670704 -446287.861557752 -827.266149383700
 703053.126868093 -381726.893020692 -938.054245042355
 734904.264049398 -316092.685632250 -1066.19501224140
 760203.683682615 -249176.632505583 -1168.38716223874
 779367.658643829 -180511.718204741 -1253.89425753372
 792423.009089061 -109836.789043399 -1286.24992671041
 799118.350716677 -37525.5234434109 -1302.55063505261
 799212.431667487 35466.0757419706 -1283.17559529093
 792696.058422104 107848.820100246 -1261.33462861782
 779796.861797282 178648.892892593 -1194.73819776840
 760761.932653731 247467.279090399 -1107.97317419643
 735568.818005028 314543.408861875 -978.733996807810
 703809.624875958 380330.499841358 -850.189618026710
 664789.906307539 445032.431949294 -717.624489992502
 618155.270297884 507822.488040014 -618.420406873146
 565577.870909686 565792.687889790 -553.414593901457
 516456.249519668 610960.429025415 -544.515526700034
 455870.835309613 -657404.944362969 -721.554736432054
 506539.463567964 -619206.934375841 -737.745993981432
 564533.299609558 -566834.604964955 -827.191737077722
 619242.323982875 -506495.833386461 -956.530419446850
 667557.230362491 -440869.682417964 -1125.75105718746
 708835.177926715 -370878.780480724 -1273.07609103124
 743023.707852116 -296502.632318590 -1399.49913919566
 769908.767410400 -217344.038431896 -1434.85982322948
 788789.463693106 -133450.940490007 -1424.23631306463
 798685.670913951 -45818.5160253201 -1364.79521154964
 798827.457325285 43276.3157365556 -1361.58712159238
 789194.868077438 131032.765811877 -1369.11793702214
 770528.543403228 215136.827113097 -1381.81786388209
 743801.513019940 294546.426248263 -1308.43938526125
 709722.979041766 369177.292600138 -1191.49003907854
 668520.551095976 439407.827632893 -1016.74838254325
 620257.536222026 505252.269988383 -855.822042911560
 565581.508613635 565788.880763717 -706.766202284359
 507601.118673169 618337.062916840 -617.207520024454
 456926.662136087 656671.669707929 -586.201479439185
 394064.458087802 -696213.025006433 -791.633349297854
 443725.085294166 -665663.086391661 -839.104411986532
 503899.512810358 -621356.863772486 -963.759464359031
 564403.198439462 -566963.560919750 -1161.97267729120
 621335.777508859 -503924.601753162 -1359.16716406523
 672957.185841694 -432580.944459369 -1533.79094683561
 718189.961928804 -352421.263268713 -1559.41681028559
 755620.460486983 -262746.424607767 -1426.90198491291
 783115.350052615 -163490.411897741 -1110.73375664735
 797994.571853688 -56603.4089889325 -846.984581529620
 798214.380598633 53414.9013171112 -806.797883574597
 783728.860142081 160523.999555870 -1057.99195741235
 756522.002911231 260139.803982362 -1319.65722688358
 719267.114083735 350218.026019152 -1467.25897609910
 674121.492348357 430764.700447457 -1409.39789920473
 622526.980380635 502452.565748438 -1256.13334568527
 565581.777315070 565788.103308980 -1036.97789412953
 505038.159406359 620431.888511787 -853.967877392544
 444804.860365369 664942.197127535 -714.614967808669
 395083.405457253 695635.434966423 -666.596862403697
 332655.874298790 -727557.059463350 -891.358261696044
 379060.151861512 -704494.485998377 -959.410554227319
 437999.210111888 -669444.086516166 -1143.22784268829
 500939.392784706 -623745.017780647 -1370.23731925561
 564173.172946824 -567191.398878197 -1596.23485319618
 625584.964659596 -498638.940785234 -1630.55954546190
 683209.067807133 -416201.399601709 -1328.39590786172
 734261.270454088 -317584.904406419 -463.901189874090
 774176.191058090 -201619.884768356 804.527676010173
 796867.970276574 -70694.6640518674 1924.16784282782
 797217.442340920 66637.1221841790 1960.50361225080
 775116.505244249 197973.504684584 945.907418360381
 735565.582914799 314552.328672334 -325.204587633972
 684668.215723225 413797.164576126 -1158.00135359838
 627058.354046892 496785.239853891 -1498.69386994495
 565581.345291979 565787.636654473 -1446.39782200809
 502242.148947464 622696.758619915 -1253.24574036478
 439178.728924541 668671.084682966 -1012.21002339702
 380115.043379270 703926.018963044 -844.762461373243
 333608.703211088 727120.792035854 -766.114200473152
 272153.536931186 -752284.158266569 -998.777755396178
 313348.419037206 -736078.500404292 -1099.78609393380
 367806.921471521 -710433.928419787 -1304.55650360582
 429174.692164538 -675134.538158258 -1561.72702778068
 495005.838851208 -628463.599387791 -1650.37806384119
 563807.814035884 -567555.370508725 -1284.61619998102
 633867.655080469 -488069.441509085 126.916503063677
 701562.645918238 -384448.294231529 3059.88801561268
 759387.757569141 -251545.150572472 7434.43861930320
 794822.637935795 -90163.7923303914 11290.0299993711
 795400.776832376 84893.3870216249 11433.1559269174
 760852.500930648 247071.309185428 7696.75288529609
 703429.142416936 381019.806376075 3368.79024441892
 635779.684856982 485576.008305576 363.979641257835
 565584.114162993 565785.719704486 -1062.63113962099
 496578.669172704 627221.965117728 -1493.91985129004
 430532.511127464 674269.820371640 -1402.21192284551
 368963.446935113 709834.188021468 -1183.36032666992
 314330.711617225 735659.746452022 -970.146563436689
 273008.924571159 751974.306164189 -877.481274241280
 212129.972960323 -771362.203338701 -1107.17312008380
 246422.834775061 -761100.719441416 -1217.11428495819
 293273.786899440 -744303.959373884 -1449.81999605477
 348696.003178497 -720005.899926090 -1612.89769143389
 411939.529801399 -685787.071146434 -1384.49824785955
 483380.958435234 -637450.267026227 78.0411867351570
 563206.864164607 -568138.271735748 4114.89331425801
 649366.806300838 -467081.052908734 12571.4314347518
 732627.125378959 -320298.866928114 25809.5138181587
 790086.606194134 -119444.224792194 38681.1566066331
 791104.261398482 112383.083602372 39039.5967856297
 734949.007332198 314876.560321900 26508.6472922678
 651975.676433263 463415.801037176 13172.4215109283
 565583.710377928 565768.608762206 4576.88697848752
 485378.420732774 635930.538682667 372.367736736334
 413565.862342898 684807.976304464 -1145.90329428046
 350006.104625700 719370.288426263 -1454.25384940161
 294328.001536880 743887.994914571 -1295.58221871725
 247279.130265946 760823.127532617 -1095.60321480540
 212853.008858868 771163.172574935 -978.715427503725
 151955.259455920 -785435.021831054 -1193.98699141761
 177795.972813373 -779991.568971776 -1320.75141274582
 214091.562336173 -770819.384986909 -1509.52471340262
 258797.139465456 -756981.991466050 -1518.28870467134
 312857.140573234 -736288.033365130 -584.393402610454
 378800.821959326 -704628.650660549 2898.61194939367
 460564.418698417 -654008.250575623 12394.5313748883
 561660.718733428 -568704.332325743 33355.9503804109
 677622.465569749 -419398.648174704 70232.2437660016
 773989.598032403 -168749.632077943 111640.780233738
 775905.687855797 158872.534558570 112826.775704874
 681287.832705777 413111.996003139 72009.4977441765
 565080.919620075 565225.566446460 34693.1306833126
 463240.988204183 652099.579657566 13188.0649846040
 380801.008643075 703547.509139295 3390.30976597510
 314347.716131697 735653.057820069 -303.121706354332
 259919.887337504 756597.623998940 -1299.04796610428
 214950.584854079 770580.551960252 -1363.45572824820
 178467.740659592 779838.366656176 -1177.89426034546
 152508.590613737 785327.951314727 -1067.08613777356
 91192.7208008400 -794784.435543478 -1260.43277204164
 107268.853332711 -792774.562458157 -1373.39869005765
 130283.339701839 -789318.639991671 -1528.38406001976
 159574.251586584 -783922.501109982 -1253.18955181463
 196678.707281811 -775446.418274788 581.796148136942
 245300.386795963 -761431.522284512 7053.87193262560
 312283.276732576 -736101.765775415 25166.3564204780
 409281.719968306 -683868.172805910 69374.3174589189
 548399.225197510 -559973.822968842 160273.539277169
 700647.433928978 -258643.741314892 286699.474027025
 704209.028186975 244267.940725399 290556.049246490
 553525.193801433 553585.912981265 164780.146788941
 412989.942755165 681358.495796357 72041.0118558258
 314694.154251533 735025.673697271 26548.9789970633
 246887.858423748 760911.651339601 7735.90450933798
 197764.167266914 775169.899264667 980.519877371195
 160345.460973541 783765.446108227 -1028.89841821979
 130849.552465469 789225.308157538 -1344.46391795271
 107699.280417711 792716.423247121 -1239.88378387489
 91540.7534546304 794744.629375169 -1124.51602225838
 29829.5406880168 -799442.635897418 -1292.44409145145
 35180.3539480030 -799224.845235178 -1410.48037910487
 42941.0423535517 -798845.302929343 -1499.62305796608
 52969.3222599271 -798243.794866891 -1046.35358698854
 66082.1214925929 -797264.492336153 1575.58846621699
 84097.0700715727 -795496.998398293 10592.8440319078
 111194.885732699 -791361.081558040 37193.2249500054
 156814.901014675 -776935.195640025 108539.341234201
 240630.286588726 -709116.406760218 281515.517937656
 370086.448017060 -393589.836038423 590019.543711361
 373778.192426280 373679.525705980 600544.315546070
 244256.540855737 704183.125739724 290628.401352350
 158768.641918820 775915.308581737 112906.829960640
 112248.207067296 791119.902541865 39110.6099713029
 84717.2717149872 795418.703255095 11492.1880054835
 66479.6839581900 797230.468815383 2007.78814218367
 53240.7768212518 798226.051001538 -768.886182143657
 43135.6533928880 798835.116660044 -1331.08869018560
 35325.7765604807 799218.686798118 -1257.05333712491
 29946.0371250495 799438.483508157 -1160.14942222979
 -31777.0244438197 -799367.579002402 -1301.67481928928
 -37475.8479171876 -799120.500368424 -1409.50835692848
 -45743.5368838546 -798689.685029381 -1521.79532926652
 -56434.2348760005 -798006.313627710 -1049.06828814511
 -70416.3294155605 -796893.486830947 1520.26249533234
 -89618.0515477554 -794895.187903775 10499.7659119991
 -118438.655099126 -790325.438452393 36850.8658425147
 -166740.311300249 -775015.974784757 107461.190277834
 -254839.467736568 -705577.916725599 277878.838908088
 -389652.916491961 -389743.326243386 579888.561982429
 -393478.895809784 369983.692645066 590157.966758929
 -258630.651907280 700591.515850622 286847.893163158
 -168800.135893759 773961.026790259 111762.440614084
 -119555.015798838 790065.142194503 38777.1748135183
 -90278.0163121379 794808.611244397 11364.4737009423
 -70840.3361087608 796854.891750995 1981.98700990173
 -56724.2104540043 797986.040125956 -802.316936115571
 -45951.6245451525 798678.083969374 -1329.05555620160
 -37631.4543546707 799113.417476052 -1272.65584430084
 -31901.7302850232 799362.824446299 -1163.82904981330
 -93096.5227182445 -794563.659122059 -1276.34647929923
 -109493.643703517 -792470.300056997 -1401.96865129061
 -132961.690953504 -788871.856087041 -1543.83048643562
 -162815.936007954 -783255.543320752 -1313.33132443286
 -200600.910365478 -774441.101844089 504.514673588319
 -250029.352001290 -759894.003441187 6813.71205279424
 -317912.800816029 -733707.839483044 24581.6467803376
 -415705.319180711 -680147.558350070 67737.6296846998
 -554846.654030727 -554786.055530673 156069.289418586
 -705560.552262115 -254810.917781954 277949.101942600
 -709061.333115345 240620.608278480 281662.473099248
 -559945.148898241 548384.066028241 160425.516522961
 -419425.438502467 677592.452526003 70361.7070345087
 -320347.918222356 732602.021387773 25913.1153887828
 -251639.240968097 759355.782784587 7515.82042133762
 -201704.844239785 774153.992145491 867.326584008008
 -163601.670370699 783092.182652120 -1061.56538062524
 -133539.268459574 788774.584156462 -1385.34042119116
 -109933.074454138 792409.709972562 -1253.26863071316
 -93452.0216593444 794522.123449224 -1146.73341203306
 -153781.948600500 -785079.363423150 -1226.95221363297
 -179896.947081095 -779509.639277475 -1345.62416863235
 -216557.801570604 -770130.040355039 -1561.89681296890
 -261674.970181968 -755991.906167027 -1564.54153378907
 -316158.793312001 -734876.258709342 -708.376212879497
 -382478.150739196 -702640.190649112 2688.25067719779
 -464439.408251988 -651271.987824974 11867.3475153084
 -565294.844468358 -565159.271959407 32198.3871615960
 -680230.667348906 -415564.305675981 67768.3336529867
 -775026.462845321 -166641.103548930 107539.409043687
 -776903.916006791 156886.622626714 108659.527580864
 -683842.755016755 409302.328040160 69503.1702298521
 -568692.012483756 561666.249000305 33472.6705104595
 -467112.239045685 649342.459708249 12669.8916241375
 -384484.112188510 701542.666138541 3139.27727982283
 -317658.027813183 734229.675930593 -400.435630399380
 -262806.604601334 755599.624747736 -1376.82932798282
 -217424.922940554 769886.004237397 -1394.04579198009
 -180575.758903780 779352.878197315 -1219.23823936304
 -154341.473439449 784969.750444291 -1095.65686603083
 -213861.621239748 -770883.839686863 -1145.71826629607
 -248371.612111791 -760466.920432690 -1266.97458925943
 -295486.117248184 -743428.367092664 -1489.13247453770
 -351161.566051122 -718806.431381298 -1693.73357054774
 -414597.938965480 -684183.003142298 -1472.14699063108
 -486103.393323131 -635376.641708820 -119.040155889053
 -565764.413526663 -565593.781030328 3781.96333237020
 -651411.151300759 -464243.809850553 11882.6333976613
 -733779.619858877 -317744.031677974 24621.1253355320
 -790346.009175385 -118279.594474994 36920.4998797826
 -791342.690012890 111293.981414887 37288.0230635295
 -736067.155464545 312356.538367749 25269.2616680966
 -653993.368660370 460582.898500532 12492.6921482137
 -568127.929626351 563216.660406085 4201.07361183016
 -488096.677958600 633846.663626399 199.938640853275
 -416225.379592499 683194.572637189 -1268.58274007871
 -352475.378983162 718163.509808399 -1510.09614207332
 -296544.992885976 743006.878145288 -1358.75790647067
 -249232.742305125 760185.344102900 -1132.59623077549
 -214589.324393901 770681.759386476 -1023.52583574942
 -273787.058285512 -751691.119684244 -1052.28475883608
 -315137.976936904 -735314.044201542 -1145.37857880059
 -369758.642276966 -709419.948643565 -1372.19825640801
 -431239.306511531 -673817.512451970 -1618.77499724415
 -497091.009927440 -626815.313590702 -1757.98108801965
 -565777.562638166 -565591.522835128 -1406.73816201832
 -635543.616507245 -485885.067927897 -110.822360442587
 -702749.191652583 -382277.690946741 2709.36082288280
 -759962.243050047 -249820.811946156 6852.08412859709
 -794912.247627794 -89459.7738762353 10557.8136629452
 -795481.054046353 84238.4786863654 10666.3659187126
 -761405.846805715 245377.738373161 7134.56101971216
 -704595.503588888 378861.861373609 2977.63645286335
 -637441.226380632 483392.863144116 150.902914155341
 -567545.625048709 563817.765604291 -1220.93286213492
 -498660.477422300 625567.938589182 -1575.58441347374
 -432596.904481544 672947.030626775 -1487.34783824001
 -370916.891015113 708815.307502731 -1232.80553656817
 -316122.967173283 734891.290174124 -1030.17074852470
 -274645.567782033 751378.034636734 -927.988751627223
 -334198.559319200 -726849.653326103 -951.004045126970
 -380696.161727240 -703611.668826071 -1025.64025884533
 -439701.886420414 -668326.877108512 -1198.50436513310
 -502640.157322443 -622375.096510006 -1453.09704811139
 -565780.488210157 -565587.886483326 -1667.88009186578
 -626993.543222966 -496866.202041589 -1753.28990133791
 -684311.810689364 -414385.344100226 -1460.25545100275
 -734974.451203284 -315930.505828754 -686.706064800131
 -774489.943883711 -200412.167275295 538.545285635012
 -796909.669057502 -70231.9333398240 1566.81269233433
 -797253.945021298 66207.8654517511 1632.69724671668
 -775417.938099162 196790.768271051 644.047617557610
 -736264.657678676 312912.259387180 -521.323808259635
 -685758.693438856 411986.964628211 -1324.89602097603
 -628458.093820928 495013.008621604 -1595.49564534990
 -567183.097015451 564181.654945051 -1547.47646972308
 -503940.223561592 621323.201194846 -1315.57351889100
 -440880.790979400 667549.958321349 -1086.87190785699
 -381751.895547446 703039.598700666 -901.612300262838
 -335153.042104661 726410.178521290 -831.209154232885
 -395528.070137609 -695382.482231216 -865.528262086075
 -445216.930464678 -664666.132206608 -904.170956900109
 -505369.548907306 -620161.701422940 -1040.73312153741
 -565782.971035339 -565586.533811691 -1225.74765047615
 -622556.111269017 -502415.948292911 -1450.24912855279
 -673956.027068314 -431022.825399397 -1611.69569605821
 -718919.585805718 -350929.912625152 -1680.94313928069
 -756061.371028526 -261474.317102398 -1544.25849505286
 -783297.626468881 -162613.584630084 -1284.70306736820
 -798017.241402748 -56280.1822863946 -1011.68461365706
 -798234.135479540 53115.5394620742 -1002.20900244497
 -783903.739378733 159666.767405967 -1204.48087089108
 -756953.348419430 258881.192196140 -1468.55157147774
 -719987.387105385 348734.450393303 -1563.81521961568
 -675112.280969058 429209.868929713 -1515.42010513466
 -623741.251389521 500944.199657254 -1326.70448436663
 -566957.429691010 564409.438749292 -1121.77041892043
 -506505.933095347 619234.120597919 -918.491444524177
 -446295.944440865 663942.245400218 -790.410370204971
 -396547.310582733 694801.902661771 -739.274769890726
 -457266.251165992 -656435.013963123 -804.976917039840
 -507893.633120148 -618096.582477398 -819.857169642915
 -565785.939314556 -565584.180338553 -897.677398732265
 -620343.085148997 -505146.886958435 -1038.89558012010
 -668470.467623474 -439483.569924192 -1194.01923828362
 -709538.642593567 -369530.856198108 -1364.17886360553
 -743509.319794388 -295282.426583818 -1476.45848517989
 -770187.514277420 -216353.436540779 -1543.80962672969
 -788899.969148561 -132795.066667606 -1519.52168319666
 -798698.954357518 -45582.3995628643 -1491.69644997218
 -798839.084028689 43057.7948507731 -1464.28507938490
 -789300.731800640 130392.235731605 -1489.84559173854
 -770800.991177871 214158.058457662 -1469.01220423816
 -744280.184770881 293334.315105573 -1409.30442711345
 -710419.875610322 367834.203835663 -1264.44707215304
 -669428.002999587 438023.890889104 -1104.45025014817
 -621353.662995572 503903.530881528 -925.768391389427
 -566830.757697177 564537.216108052 -789.783144252725
 -508953.199152723 617224.560773305 -694.730457712216
 -458321.063182547 655699.129915114 -673.848487111704
 -516726.322445662 -610731.760075642 -790.523049249728
 -565791.484405210 -565578.814789357 -774.878065270054
 -618281.558797195 -507668.438914372 -818.646171794385
 -664814.813030213 -444994.890135999 -901.181698496737
 -703732.305933592 -380473.127359392 -1020.26602023263
 -735401.517996853 -314933.826066038 -1136.89372022336
 -760531.915047100 -248172.584614409 -1254.76714756159
 -779549.057668324 -179726.181833807 -1329.00408941257
 -792492.796595773 -109330.968786212 -1380.79979639643
 -799126.607409273 -37346.3613081499 -1383.70068515776
 -799219.606290135 35300.3401840838 -1380.90706756655
 -792762.933336238 107355.176844656 -1340.72099044069
 -779973.961479733 177873.451344802 -1286.35931999101
 -761085.191124216 246470.963412652 -1181.54384369752
 -736060.859225936 313389.979984111 -1063.93662167753
 -704483.777559707 379080.143300387 -923.098349591360
 -665652.456846981 443741.099007789 -802.337172839956
 -619203.880061391 506543.251429561 -699.534193385508
 -566793.881000441 564574.422066033 -646.845624372430
 -517788.609150560 609831.567489306 -644.614198376391
 -565801.452917328 -565568.769614635 -826.264624756940
 -610930.646277472 -516491.163116633 -789.848985149583
 -656595.496271811 -457035.785631247 -803.074096269418
 -695509.232547538 -395305.153810112 -861.865591275961
 -726945.006734682 -333991.113833568 -945.020489887382
 -751762.001024308 -273592.406841709 -1043.42440568379
 -770932.155931270 -213687.450100394 -1133.41111500911
 -785110.705118870 -153621.986194475 -1210.81188294499
 -794579.774846158 -92959.1501060291 -1256.11185639234
 -799372.492700243 -31654.1593303217 -1277.54111136506
 -799438.946997355 29929.4231795499 -1264.77345790603
 -794774.610016287 91278.7285962138 -1230.03224322370
 -785422.533469167 152020.047529919 -1161.49381265550
 -771347.705490821 212182.857926988 -1073.32939075661
 -752271.327200292 272189.127948611 -963.794005940110
 -727544.936431463 332682.482147162 -855.304239064640
 -696204.764568115 394079.125811585 -753.917922118696
 -657398.704619539 455879.895402166 -681.272826589417
 -611855.981800033 515394.837777436 -647.091870918952
 -566848.866997058 564519.194641834 -663.976722171143
# End: Data Text
# End: Segment
