# OOMMF OVF 2.0
#
# Segment count: 1
#
# Begin: Segment
# Begin: Header
#
# Title: Oxs_TimeDriver::Magnetization
# Desc: Oxs vector field output
# Desc:  MIF source file: C:/Users/Victor H. González/Documents/GitHub/Intro-to-magnetism-in-python/vortex_dynamics/drive-2/vortex_dynamics.mif
# Desc:  Iteration: 3134, State id: 19739
# Desc:  Stage: 447, Stage iteration: 6
# Desc:  Stage simulation time: 1e-11 s
# Desc:  Total simulation time: 4.48e-09 s
# meshunit: m
# meshtype: rectangular
# xbase: -4.7499999999999995e-08
# ybase: -4.7499999999999995e-08
# zbase: 2.5000000000000001e-09
# xnodes: 20
# ynodes: 20
# znodes: 1
# xstepsize: 5.0000000000000001e-09
# ystepsize: 5.0000000000000001e-09
# zstepsize: 5.0000000000000001e-09
# xmin: -4.9999999999999998e-08
# ymin: -4.9999999999999998e-08
# zmin: 0
# xmax: 4.9999999999999998e-08
# ymax: 4.9999999999999998e-08
# zmax: 5.0000000000000001e-09
# valuedim: 3
# valuelabels: Magnetization_x Magnetization_y Magnetization_z
# valueunits: A/m A/m A/m
#
# End: Header
#
# Begin: Data Text
 566163.044068183 -565206.981730283 -689.445279009855
 611259.843963255 -516101.690752242 -669.298658347495
 656897.589610347 -456601.651157989 -699.230945254879
 695790.186339405 -394810.619392253 -769.031132567378
 727208.277635179 -333417.713548607 -865.581247112900
 752004.897539595 -272924.331631718 -971.225948567353
 771147.592450586 -212908.984862816 -1074.62660965117
 785285.254781690 -152727.617524828 -1159.08051732322
 794697.242821841 -91950.0075592275 -1219.98410707619
 799415.560792567 -30548.2920616806 -1250.20591100710
 799393.998259087 31107.2441388685 -1254.95395738010
 794634.094257925 92494.0249105260 -1229.47091746752
 785184.395168755 153245.162360734 -1177.19858482021
 771013.583386431 213393.654706775 -1096.52382594215
 751841.249186811 273374.716020038 -1000.33103483552
 727016.310475248 333836.004006699 -898.182496308234
 695568.559763089 395200.867109080 -808.273055945203
 656642.627684221 456968.168416443 -743.345197692387
 610966.988668943 516448.273239718 -720.988569598874
 565832.122086442 565538.194907250 -748.141834455650
 517084.452116467 -610428.720549648 -668.212191300559
 566140.765055932 -565229.324587340 -666.909607667567
 618620.886568601 -507255.047006494 -718.322710910195
 665147.503984560 -444497.618107776 -815.744828029566
 704055.945038475 -379874.123367171 -936.296963197674
 735712.368165617 -314207.204515759 -1069.55997115567
 760815.192484804 -247303.123025654 -1186.68701408773
 779785.712918076 -178696.951003523 -1281.26144585117
 792654.747787629 -108151.152015794 -1333.83934051965
 799186.925912529 -36033.3567739554 -1361.85538292772
 799156.693370193 36697.7182775263 -1362.68662721738
 792567.025665022 108791.960962142 -1348.72477245654
 779648.049696036 179296.506227750 -1296.71110457062
 760636.508250538 247852.031076794 -1213.67521853724
 735500.262129399 314703.293671251 -1096.06571520562
 703815.245418810 380319.807231517 -971.876248311659
 664880.367814452 444897.034498645 -851.580430402554
 618327.901361695 507612.082487971 -761.649438109825
 565823.312506408 565547.054007181 -713.251761077547
 516748.626431822 610712.974435190 -721.066812362510
 457604.492611598 -656199.393445803 -695.976323481966
 508245.620962433 -617807.312846766 -716.216147092028
 566156.490749120 -565213.390979049 -806.622964104716
 620729.451773292 -504672.226319768 -944.289509787518
 668872.711711827 -438871.338309920 -1115.31938289325
 709943.102707223 -368753.520687813 -1277.45793841433
 743898.685115558 -294300.452138470 -1410.72833526930
 770524.215656443 -215151.738515585 -1470.54436973012
 789139.461750873 -131364.888768445 -1475.09538589298
 798789.481629106 -43968.9706613639 -1446.94771306393
 798743.771427013 44791.3380896647 -1457.27097311434
 789008.923575379 132146.552486200 -1485.65959587135
 770324.891695531 215864.115836897 -1498.24171027097
 743649.108783774 294930.404504877 -1435.09710101913
 709658.993363566 369299.859027518 -1314.25281652578
 668565.414947232 439339.240619985 -1147.86231282073
 620406.608210617 505068.974280611 -985.752368267570
 565824.064938611 565546.118587574 -845.746342262292
 507909.572476912 618083.559003363 -761.758528767701
 457270.563378254 656432.082575752 -743.527399906869
 395825.639128802 -695213.263564799 -762.608586792186
 445548.441714352 -664444.075265285 -810.512661069521
 505743.903400912 -619856.611255537 -941.092775365667
 566209.479783805 -565159.738429028 -1138.00781451105
 623029.288213949 -501829.343861867 -1347.46680441607
 674470.862019980 -430217.072629649 -1525.35373014050
 719443.043267314 -349856.003350770 -1576.20230033574
 756544.515056174 -260073.561658215 -1462.62258586663
 783655.372899497 -160881.423968878 -1193.29271232735
 798157.462594065 -54256.2000198459 -964.191272861445
 798086.424645913 55291.2592699850 -967.183665695642
 783457.153222735 161843.732677674 -1222.80705213169
 756253.662885927 260917.952023808 -1489.86016774121
 719096.209078491 350568.138191895 -1619.43620190049
 674097.010292496 430802.490638313 -1560.37641127144
 622647.957566285 502302.279833333 -1393.05878220487
 565833.378153185 565536.210669476 -1175.83560230969
 505381.539387122 620152.019759632 -985.918228244788
 445205.503829142 664673.855155256 -851.841118636827
 395502.326616026 695397.192847792 -808.591814118065
 334434.690844268 -726741.155102904 -855.008535185702
 380974.743087808 -703461.005357501 -926.860612083212
 440048.531868227 -668098.842112688 -1107.59573166428
 503066.029439782 -622031.162827689 -1342.57026914697
 566303.795530721 -565064.206944276 -1566.26879443441
 627607.082552203 -496091.446962236 -1620.54966836362
 684996.801520696 -413252.467537726 -1334.15906016909
 735653.005428037 -314347.545202491 -525.765979447060
 775031.630866934 -198306.616918769 675.900860050004
 797130.669089022 -67674.4701076992 1691.89046055874
 797017.341930780 68996.9174746612 1667.94501979277
 774726.751919721 199494.490824033 638.741558238237
 735230.540789318 315334.280855002 -585.839829727171
 684525.096837896 414033.186117613 -1382.96506437989
 627131.974684768 496691.723678008 -1678.67738220596
 565851.124331207 565517.384780586 -1610.15652493311
 502648.545522411 622368.458647178 -1393.32887048631
 439671.621756546 668346.875866157 -1148.27780522183
 380638.387655938 703643.000670489 -972.342593696824
 334131.217746606 726880.679130471 -898.684591925621
 273936.890712681 -751636.658843346 -955.504829815030
 315333.879598125 -735230.189753751 -1054.72852372528
 370026.224718917 -709280.618992796 -1263.54321709682
 431615.971472603 -673576.546450737 -1513.02387898562
 497601.070742147 -626410.868694284 -1611.82441372780
 566456.226528249 -564912.192377374 -1248.33119198889
 636382.029454168 -484786.446125162 119.336215872227
 703683.683665161 -380552.765414574 2977.59613587584
 760782.920206628 -247301.063350742 7178.60623437610
 795273.810983866 -86155.2448361409 10809.2252461548
 795085.545196491 87880.2575099128 10772.0081502794
 760306.269462360 248765.483135316 7078.91352411640
 703076.450847316 381674.196421633 2883.06258019553
 635760.960464134 485600.659525261 24.8666880536083
 565880.662589384 565488.589998936 -1315.40427796180
 497092.964297210 626813.980243068 -1678.99316710050
 431178.752244177 673856.399296681 -1561.00610685455
 369654.942526013 709474.096974738 -1314.98591975631
 315019.287541570 735364.974343611 -1096.80692059917
 273663.307753505 751736.251528522 -1001.06306381034
 213901.871531232 -770872.804721586 -1052.75643527411
 248443.690727016 -760443.538276323 -1165.17454754771
 295626.705663451 -743372.667571914 -1388.52641002682
 351404.346601198 -718688.092623052 -1552.64665163994
 415007.827305355 -683934.783562365 -1309.62162085827
 486738.888038982 -634889.939376301 140.532315131866
 566697.221200172 -564656.578536988 4148.22840553802
 652620.734735886 -462526.767126367 12456.5759510220
 735024.833308268 -314795.164123778 25347.5652565971
 790955.526623378 -113913.429287570 37591.0299390676
 790623.840493620 116234.178343598 37464.0978525841
 734265.784321468 316579.429717828 25124.1448474241
 651767.851906224 463733.514116064 12243.1657308204
 565920.796059800 565435.803224941 4000.62725177971
 486087.910095134 635388.497700120 25.4897846929690
 414479.436337131 684254.984219088 -1383.26605901974
 350980.153643565 718895.198375003 -1620.33999675974
 295286.486285631 743507.786349044 -1436.19477453556
 248168.092335023 760533.445948059 -1214.71855462028
 213669.529622221 770937.174836077 -1097.52757958613
 153686.679126317 -785098.164171415 -1130.16538539290
 179813.488761301 -779529.051606176 -1251.78331388046
 216503.870182347 -770145.445601312 -1437.64238307447
 261698.972769071 -755983.878103507 -1422.56781736706
 316317.076964042 -734808.330609206 -473.379589817126
 382888.322781436 -702415.296357313 3046.91990184335
 465244.975857359 -650684.304019258 12531.9169507587
 566656.410891242 -563727.832489503 33338.3093834100
 682002.332709531 -412356.872195733 69531.4902163887
 776044.681898885 -160652.892415778 109294.555467793
 775416.822823733 163910.734566298 108912.910051486
 680799.078778547 414439.675837994 68937.4312371854
 565530.575737580 564882.968956005 32899.8372240765
 464364.467641535 651318.311023199 12251.4863539723
 382231.633253593 702773.533923598 2887.65593996495
 315829.344225121 735018.015584259 -584.887089723095
 261332.971101563 756110.346422722 -1490.72054425586
 216224.874078352 770223.704554122 -1499.59085248604
 179595.971956763 779579.118412876 -1298.07222764022
 153507.851426418 785133.078372228 -1178.47197414671
 92848.4135835458 -794592.833861295 -1183.41509785679
 109218.039297573 -792508.512082889 -1295.44129870425
 132667.597485130 -788921.583919695 -1429.33661666138
 162513.902452844 -783318.550890737 -1131.07912386547
 200346.889149016 -774506.635136699 772.099436394330
 249906.847366811 -759929.387625710 7341.21665637552
 318125.116777074 -733580.282214389 25619.9067490829
 416582.846608799 -679392.181908543 69892.7397721590
 556664.138867785 -551832.010770392 160020.212434845
 706735.863986956 -246301.480465211 282595.115448332
 705563.282059787 251060.776346864 281334.216882929
 554963.703608815 553967.873246704 158539.847001664
 415349.043632194 680238.725664329 68996.0003217026
 317322.479500295 733943.702397479 25161.1946231907
 249379.716449365 760104.877247729 7094.54775508471
 199987.776447816 774599.558303673 643.076366103016
 162259.875109772 783371.072601221 -1222.92312706408
 132481.857592060 788952.689253314 -1487.12101801213
 109077.341732865 792527.797738621 -1350.30813645011
 92734.8906691052 794606.018551452 -1230.98919541243
 31364.4587465505 -799384.023186235 -1205.90303265910
 36998.0570669861 -799142.926006553 -1314.37702097820
 45168.9420976904 -798722.630641105 -1387.79376274566
 55753.1903561384 -798054.391541870 -877.442789647154
 69601.0179369128 -796964.431867639 1841.91206011651
 88669.8173946398 -794993.284153069 11105.9279089921
 117360.758132097 -790421.240831469 38219.2947750295
 165631.105998625 -774812.567029522 110597.570944376
 253836.160250136 -703189.181332299 284766.885375882
 387438.505617470 -377602.365067307 589328.311097030
 386170.387456242 384238.478756858 585861.095563200
 252584.540343830 704858.624093430 281736.348418896
 164954.431809126 775163.707563670 109138.727785663
 116996.259687540 790506.919690477 37559.0886550616
 88455.7778122484 795021.262306612 10805.9174544386
 69464.4431950301 796976.710443006 1677.54077403168
 55660.3652684241 798060.768538612 -966.156171014578
 45102.7089421495 798726.247275417 -1458.61557915556
 36948.7371131211 799145.123943687 -1364.44229484188
 31325.0474086328 799385.490414354 -1256.63035464716
 -30400.3093203308 -799421.273713106 -1203.46505699960
 -35860.3459184626 -799194.799131231 -1307.14658699192
 -43777.3530510283 -798800.112271804 -1387.08125154702
 -54028.4036899131 -798173.031901371 -861.823701467343
 -67436.9034366041 -797150.434265700 1857.20351258167
 -85903.0623755454 -795296.118656569 11169.0431237656
 -113715.704453262 -790945.701375416 38387.9673393817
 -160614.664682946 -775786.471001749 111167.805139070
 -246631.627852748 -704985.258839588 286650.702007834
 -377530.226541250 -379487.279643530 594525.300249253
 -376285.206704583 386149.496958044 591014.390023067
 -245407.573746584 706645.221738089 283597.696292727
 -159955.923841116 776132.296944719 109693.938152707
 -113361.712967694 791027.948972597 37734.6787085140
 -85695.6542492719 795322.821194920 10856.5615801441
 -67304.7023398686 797161.947486324 1704.85270706821
 -53938.6280710137 798178.988791176 -962.420964487815
 -43713.3279537218 798803.509871742 -1448.30100346508
 -35812.6883220959 799196.841696079 -1363.66350547497
 -30362.2353505819 799422.646195293 -1251.96430936429
 -91906.5470831661 -794702.342728824 -1171.77837787174
 -108116.265102702 -792659.584529145 -1286.96321833953
 -131338.986737964 -789143.893767709 -1409.07479685488
 -160902.342183862 -783651.198265739 -1111.63682019033
 -198391.987321187 -775009.633547254 829.020929154585
 -247543.342260803 -760701.458158922 7455.55210833775
 -315303.982341151 -734786.045109143 25939.6729485494
 -413359.553384027 -681271.014293846 70736.7281487655
 -553431.957713593 -554440.251374482 162200.726993130
 -704278.142936851 -248165.926666291 287064.400828947
 -703094.674690260 252956.546852205 285781.146730863
 -551727.356292851 556574.395785380 160691.836364640
 -412127.533012367 682109.719183509 69837.1500602280
 -314505.463866644 735144.730715434 25466.4111990457
 -247019.903503004 760873.874923743 7218.98413169736
 -198035.927930702 775100.831832293 686.834415052595
 -160650.698347200 783702.706189379 -1192.23823224260
 -131155.103228094 789174.352441085 -1476.59961456694
 -107977.033914337 792678.482143542 -1335.69969389532
 -91794.2372555494 794715.248045693 -1221.69159137517
 -152784.159291236 -785274.320939888 -1114.24506654018
 -178774.611981500 -779767.993713085 -1230.48426810020
 -215282.709007400 -770487.729168934 -1419.29649314486
 -260271.546595741 -756476.575681964 -1382.92340744207
 -314676.306585590 -735512.505495379 -419.920899317732
 -381057.551440300 -703409.597898851 3174.91324283009
 -463313.933814755 -652055.525504472 12798.0620479439
 -564846.747123353 -565504.406058084 33954.6608444360
 -680712.001211788 -414269.179031593 70797.0247307913
 -775534.093875473 -161669.448948397 111399.544494000
 -774900.266496879 164948.246533927 111002.941170271
 -679499.473430195 416356.100791293 70200.1634040756
 -563717.209324814 566657.443724611 33499.9907840689
 -462432.724837868 652686.056155689 12525.4580337986
 -380401.821263410 703765.190925996 3001.73622709158
 -314189.987559501 735720.314654668 -519.924798406932
 -259906.991467159 756601.755020937 -1462.90318471471
 -215005.029489185 770565.162391372 -1472.34612572636
 -178558.234648054 779817.485538880 -1282.99929408120
 -152606.332761737 785308.831080001 -1160.61568844379
 -213047.881044843 -771109.293084625 -1028.83469687489
 -247482.055445001 -760757.072606383 -1143.98954649175
 -294533.908705953 -743806.384938159 -1355.85678445588
 -350184.907691797 -719283.128535876 -1520.33829492429
 -413691.327888422 -684732.014918566 -1246.18436649977
 -485389.416375319 -635922.212214330 233.416493384123
 -565429.549466625 -565924.535752777 4341.01635238340
 -651610.341715503 -463939.599001914 12806.6797940920
 -734460.030573610 -316059.508990578 25977.8803301253
 -790832.062602654 -114470.618621158 38485.4028447292
 -790496.605687278 116804.157330952 38365.4170718777
 -733695.402594909 317849.825784054 25739.9390081042
 -650752.923286356 465147.121826738 12601.1067198141
 -564650.921237694 566702.630433306 4179.21109718789
 -484737.729524454 636419.136091842 129.582368052335
 -413163.099526997 685050.711342010 -1332.69615846533
 -349761.312106554 719489.079527571 -1577.65461084368
 -294194.433695764 743940.615898093 -1412.51534347781
 -247207.232711607 760846.352634680 -1188.18246560082
 -212816.285561394 771173.178509838 -1075.80057872997
 -273133.064645790 -751929.164302898 -927.829696075415
 -314452.957870207 -735607.429600185 -1023.13424733073
 -369064.797644133 -709781.409780483 -1235.09915563478
 -430598.072284672 -674227.812591920 -1468.62937431929
 -496572.212177084 -627226.902914390 -1565.36065424546
 -565484.037835494 -565885.539660260 -1165.74297396211
 -635555.559193136 -485869.402592811 234.099991459476
 -703100.640246290 -381627.277421995 3179.75041988565
 -760503.878637176 -248149.196043328 7471.75219482755
 -795232.039787468 -86489.7371701407 11203.9394724822
 -795042.306352402 88223.0895535330 11154.2628391304
 -760023.645112188 249618.834116974 7382.17613342360
 -702490.068239695 382750.925625278 3071.31202915669
 -634932.093674714 486683.895017029 150.840640096326
 -564907.095979563 566461.314159067 -1245.98279218477
 -496063.547638077 627629.131773793 -1621.62067052286
 -430160.796034111 674506.751214866 -1527.12830719601
 -368693.783352033 709974.125079150 -1278.99791193479
 -314138.786419423 735741.582885524 -1070.55127657910
 -272859.972898259 752028.251197956 -971.900254957542
 -333677.383275335 -727089.218228735 -820.137824309540
 -380171.489047035 -703895.473378055 -895.250605017178
 -439212.198254870 -668649.013708409 -1068.34961331017
 -502230.171642141 -622706.308725945 -1306.81491196399
 -565513.566313366 -565855.208263078 -1513.14146272294
 -626914.610654287 -496966.417035724 -1565.65860211331
 -684455.447371532 -414148.749840219 -1246.42256903324
 -735304.325728701 -315162.455159511 -418.834681883383
 -774880.032668839 -198897.561642336 833.632935930599
 -797111.685794909 -67893.1068438425 1867.19369331281
 -796997.479104319 69221.2125258832 1855.27297381389
 -774573.112881230 200089.677936205 783.316582081546
 -734879.528632645 316151.640723365 -467.401953414126
 -683981.703242710 414930.498411804 -1308.09668395439
 -626438.054024255 497566.842836547 -1612.87940523843
 -565059.966053865 566308.022272428 -1568.01565536292
 -501812.241721828 623043.059628327 -1349.03932048586
 -438835.169696763 668896.440282537 -1116.25022435960
 -379835.254348601 704076.914947457 -936.692055201723
 -333374.158995535 727228.245352221 -865.607271788005
 -395108.872031475 -695620.914135688 -723.228211923818
 -444817.850241682 -664933.445408819 -770.248743119904
 -505023.830840349 -620443.479466531 -905.025305356767
 -565533.428571124 -565836.324335218 -1093.26638998164
 -622431.249494431 -502571.021059525 -1307.07459171037
 -673981.587519958 -430983.365149642 -1469.23393933850
 -719086.194759246 -350589.119143640 -1521.19845976640
 -756329.851892057 -260697.603585118 -1383.69863604881
 -783567.666908940 -161308.634791522 -1111.62789471679
 -798147.227476181 -54408.2953096127 -860.623952138250
 -798075.699101980 55447.3804972687 -875.499216169407
 -783368.233965662 162274.253479747 -1129.89871721078
 -756037.409108074 261544.282616184 -1422.76489136533
 -718737.832918976 351302.593826824 -1554.05967699465
 -673606.403515242 431569.367064908 -1514.77868271877
 -622048.930624536 503044.054936165 -1344.13624748421
 -565156.643758391 566212.566863266 -1138.92135954276
 -504661.090054747 620738.505317977 -944.563580938972
 -444474.771686035 665162.771386809 -815.411348722342
 -394785.588120546 695804.389936057 -768.347595342983
 -456922.638340034 -656674.410459057 -649.015126551787
 -507583.995589751 -618351.059821921 -673.971994873313
 -565544.434268018 -565825.866694377 -762.527392562134
 -620191.518565096 -505333.217735198 -905.181368958201
 -668426.439394622 -439550.853597248 -1068.74700357280
 -709599.518331097 -369414.396537319 -1235.80550397219
 -743661.954041061 -294898.384010236 -1356.91561373295
 -770388.915048629 -215636.039380871 -1420.59506136887
 -789086.492161339 -131683.402439680 -1410.46461251153
 -798783.483534645 -44079.6884504474 -1388.34375006961
 -798737.510065900 44905.0165462176 -1389.06540898852
 -788955.179158495 132467.649530718 -1430.77139812408
 -770188.565093975 216350.415600505 -1439.39847614178
 -743411.231288531 295529.707997747 -1390.28228674915
 -709314.341698953 369961.571340652 -1265.06574390769
 -668118.194193650 440019.147057102 -1108.51727822684
 -619867.921782854 505730.040022088 -941.362769017135
 -565211.450270962 566158.428861584 -806.170936679404
 -507247.598105407 618626.995608787 -717.300732705266
 -456588.527900807 656906.712764203 -697.792736862697
 -516433.498053896 -610979.594276681 -614.382063097848
 -565546.238706257 -565824.240599580 -616.956330668533
 -618107.598532980 -507880.440915933 -674.070344198186
 -664724.615271322 -445129.859924438 -770.490781086446
 -703724.769810303 -380487.379675144 -895.691564365707
 -735470.077110545 -314774.073607311 -1023.84552935236
 -760655.551902175 -247793.906986967 -1144.99804861104
 -779697.903084536 -179080.045187918 -1231.80399049505
 -792621.355015412 -108396.159249278 -1288.50049923520
 -799183.230687447 -36117.1800707404 -1308.85129520734
 -799152.813991404 36783.7963950962 -1316.13539728997
 -792533.160483721 109039.014354155 -1297.25955671623
 -779559.529603447 179681.297231214 -1253.48704046659
 -760476.059441222 248344.120031803 -1166.64578145132
 -735257.118279210 315271.082579384 -1055.70307134593
 -703483.256477537 380933.653112524 -927.244361601932
 -664456.727278674 445529.573871182 -810.172992546024
 -617813.967119792 508237.533573849 -715.191216381484
 -565228.267256037 566141.822657735 -665.231173679446
 -516097.291908720 611263.560343082 -667.144051105297
 -565537.829811806 -565832.633791598 -627.366095573582
 -610725.231374261 -516734.278149516 -614.449473051782
 -656462.884342490 -457226.486601292 -649.177154990478
 -695449.694359998 -395410.165693011 -723.520013458685
 -726952.740659878 -333974.608986580 -820.609136451909
 -751824.571803906 -273420.831444781 -928.527823291935
 -771032.375387898 -213326.078130884 -1029.80240409223
 -785223.456290000 -153045.350782596 -1115.48008433108
 -794674.191655415 -92149.6206580837 -1173.25589123067
 -799413.042396288 -30615.9334443924 -1205.10001203026
 -799391.364849058 31176.7133403123 -1207.62165252753
 -794610.703683495 92695.3351598987 -1185.08700776873
 -785122.094770919 153564.369639044 -1131.67128062150
 -770897.747953854 213811.953545060 -1053.90745393693
 -751660.249055575 273872.152188383 -956.161814570948
 -726760.072017456 334393.580467164 -855.022533576519
 -695227.370450892 395800.862630046 -761.916826802263
 -656207.247317784 457593.232238780 -694.533573293932
 -610431.750411059 517080.878064454 -666.055692616556
 -565206.351454176 566163.676612565 -686.702557471552
# End: Data Text
# End: Segment
