# OOMMF OVF 2.0
#
# Segment count: 1
#
# Begin: Segment
# Begin: Header
#
# Title: Oxs_TimeDriver::Magnetization
# Desc: Oxs vector field output
# Desc:  MIF source file: C:/Users/Victor H. González/Documents/GitHub/Intro-to-magnetism-in-python/vortex_dynamics/drive-2/vortex_dynamics.mif
# Desc:  Iteration: 3442, State id: 21675
# Desc:  Stage: 491, Stage iteration: 6
# Desc:  Stage simulation time: 1e-11 s
# Desc:  Total simulation time: 4.92e-09 s
# meshunit: m
# meshtype: rectangular
# xbase: -4.7499999999999995e-08
# ybase: -4.7499999999999995e-08
# zbase: 2.5000000000000001e-09
# xnodes: 20
# ynodes: 20
# znodes: 1
# xstepsize: 5.0000000000000001e-09
# ystepsize: 5.0000000000000001e-09
# zstepsize: 5.0000000000000001e-09
# xmin: -4.9999999999999998e-08
# ymin: -4.9999999999999998e-08
# zmin: 0
# xmax: 4.9999999999999998e-08
# ymax: 4.9999999999999998e-08
# zmax: 5.0000000000000001e-09
# valuedim: 3
# valuelabels: Magnetization_x Magnetization_y Magnetization_z
# valueunits: A/m A/m A/m
#
# End: Header
#
# Begin: Data Text
 565510.633073385 -565859.733658332 -696.925434458315
 610694.143433083 -516770.942420403 -675.460185532965
 656424.701345259 -457281.222920881 -703.297783880840
 695402.366902762 -395493.304008787 -771.096784318619
 726897.414902916 -334094.898056264 -864.465286851112
 751763.035073104 -273589.845594916 -967.204748361336
 770970.046161463 -213551.051430033 -1065.99949349119
 785166.864221426 -153335.192707588 -1146.30101561275
 794632.937016840 -92504.3369428705 -1201.27213825110
 799396.868966855 -31034.5174264393 -1226.62712241481
 799409.538910312 30706.4732806787 -1225.39702355572
 794670.109853880 92184.5247685459 -1195.78343354967
 785226.424816944 153029.948758032 -1138.66251062186
 771049.557674737 213263.844060479 -1054.71614223880
 751860.700685131 273321.379340711 -954.128164495277
 727012.742358274 333843.905137213 -848.204832426136
 695536.404644039 395257.565517390 -752.805492304402
 656579.828752204 457058.490561070 -681.675702955694
 610873.126253332 516559.386844419 -650.756789533025
 565713.355114377 565657.098372275 -668.510504499629
 516412.422978773 -610997.342627473 -675.792393312132
 565519.057122776 -565851.343642022 -673.000361030659
 618068.675421493 -507927.740101634 -723.393369816893
 664673.423253783 -445206.212374737 -817.852699468039
 703658.978470764 -380608.938723120 -936.899963656709
 735394.652906143 -314950.106275272 -1065.37986074825
 760574.259890287 -248043.148213566 -1179.75278953907
 779622.691693061 -179406.946594401 -1267.32432329586
 792564.324580914 -108812.042924019 -1315.56691268223
 799160.758884283 -36610.0870910797 -1335.28374552698
 799178.473016811 36221.4575797759 -1332.02001289056
 792615.796614746 108436.522290972 -1311.33146493012
 779703.758218020 179054.373217784 -1257.31948257830
 760679.993718087 247718.750724724 -1169.48554192978
 735520.943611347 314655.109434583 -1050.53119124605
 703803.265907034 380342.099941939 -921.905824150150
 664834.662755155 444965.428522330 -799.136519933699
 618246.587162125 507711.199587974 -703.758001958039
 565712.702364220 565657.772753981 -650.005212868990
 516617.756433242 610823.763867606 -650.563213267035
 456915.909363069 -656679.035550068 -704.301037618748
 507567.351192288 -618364.665681817 -724.044100427682
 565513.721121770 -565856.493885093 -812.127501951528
 620138.901856262 -505397.705819525 -949.398162669827
 668353.946585278 -439660.956465267 -1115.99459151695
 709504.563803662 -369596.596682097 -1276.58246397514
 743555.819004134 -295165.678646316 -1402.20339134891
 770282.263631893 -216016.457331189 -1457.56516489947
 789003.926969066 -132176.771864247 -1450.58848068776
 798749.470642988 -44690.9231190229 -1415.81719020729
 798776.098900723 44212.4520070117 -1415.24290120167
 789080.146123277 131721.090677422 -1441.27194446117
 770399.059782065 215599.606603900 -1448.55761155087
 743702.852050008 294795.089192315 -1386.80956849158
 709673.005957472 369273.110503139 -1262.72507786266
 668537.443357207 439381.932177262 -1097.49969619601
 620333.027952353 505159.445532762 -932.212689381323
 565714.862322343 565655.432179529 -791.576529785486
 507771.626031259 618196.959741166 -703.394874608559
 457119.402596985 656537.423043947 -681.110996507683
 395124.452252651 -695612.010804096 -773.082870527917
 444824.515272364 -664928.927841698 -819.470559475414
 505009.481950461 -620455.090967513 -950.385512959929
 565494.903359429 -565874.726260288 -1143.87689617854
 622356.395956543 -502663.590521011 -1353.20970599697
 673874.931450015 -431149.920648627 -1524.03671889626
 718947.706845673 -350872.807608063 -1570.89228877718
 756183.708484984 -261120.884933826 -1443.07770811094
 783444.196715675 -161906.888798324 -1161.89163842635
 798095.322576796 -55163.6094432594 -912.290651720692
 798136.444612314 54565.5194604884 -905.465418013168
 783559.163153099 161349.647696551 -1152.83433984383
 756353.101242015 260629.921442686 -1424.88257910365
 719150.817445651 350456.392436582 -1555.23875587567
 674095.373635302 430805.255548081 -1503.00886084223
 622582.883854491 502383.089466012 -1335.72078337478
 565719.924367432 565649.809306559 -1122.67767398277
 505227.662659140 620277.470889069 -931.660583563652
 445032.017987688 664790.091519766 -798.237401221536
 395320.599261147 695500.581411358 -751.702248716162
 333726.170253778 -727066.771567798 -867.738281894879
 380210.549517735 -703874.317458233 -939.818136450827
 439235.168840732 -668633.842759794 -1118.37816791394
 502218.033008148 -622715.996306893 -1354.71950628655
 565461.309352966 -565907.264659043 -1573.35023089381
 626803.880559760 -497105.875820681 -1625.89660793009
 684293.960231974 -414415.272618456 -1325.82450334554
 735104.629336897 -315627.837817953 -501.918148601339
 774699.356170427 -199600.523511815 733.868472096172
 797029.495627654 -68853.4848458959 1783.45846700162
 797094.603328047 68095.4453231012 1789.88031765277
 774874.860699524 198918.011539983 758.248555881239
 735348.877025944 315058.408173246 -478.012576410047
 684568.322463229 413961.991180843 -1296.81821155975
 627082.168341499 496754.851990669 -1603.48740340022
 565728.514110402 565640.214229782 -1548.02084034277
 502466.300705766 622515.730547717 -1334.86917180254
 439460.826716826 668485.587137909 -1096.16159842247
 380412.960418309 703764.969733806 -920.283300732216
 333909.337843537 726982.694234848 -846.394666770288
 273223.861884100 -751896.120730822 -972.073597630097
 314543.023175951 -735568.855882775 -1069.96571874865
 369138.253401932 -709743.129044696 -1280.87829806218
 430646.695507318 -674196.625125048 -1527.84770889301
 496565.376350262 -627232.153694533 -1628.61347188721
 565408.784543028 -565960.535279587 -1256.52999137202
 635384.757764897 -486092.784010287 122.201364027003
 702851.256356153 -382087.684781623 3018.70448953791
 760236.662876824 -248972.248465516 7282.57591353101
 795101.010261293 -87710.7878763336 11009.1403653385
 795208.175843793 86730.6267008001 11034.2858071062
 760508.882496507 248138.123193098 7328.81041651499
 703199.537103736 381445.895351540 3072.44797394985
 635743.231661576 485623.842871553 163.190564258745
 565743.497670749 565626.033412217 -1218.67535789157
 496863.212246509 626996.317247895 -1602.02174070374
 430905.025393454 674031.606412685 -1500.88220788123
 369359.156631104 709628.230143356 -1260.31597927606
 314731.255767564 735488.367265619 -1047.97897223485
 273388.086795441 751836.450807035 -951.439021473257
 213192.957880531 -771069.135592354 -1072.77537749017
 247632.660977053 -760707.997626246 -1186.40840016674
 294688.712788183 -743744.967763872 -1409.07102746668
 350318.437452930 -719217.979201483 -1578.21857596840
 413787.873207262 -684673.511684584 -1333.56068912963
 485398.482587585 -635915.324386170 115.379815634846
 565315.833331145 -566039.606411847 4143.97855142268
 651333.683151137 -464336.080722843 12507.4910243443
 734087.287296363 -316959.378623329 25546.1725622456
 790620.391924112 -116072.658171574 38033.3261594118
 790808.054273900 114765.866186611 38097.4704405070
 734516.993233252 315952.231467566 25670.4904948963
 651818.911385609 463651.805244445 12613.8912968206
 565760.353916685 565594.708282808 4224.67733114725
 485774.131902191 635628.401753587 166.309512865903
 414095.390266057 684487.645035010 -1292.88623962295
 350567.359312002 719096.739082802 -1551.26577074859
 294889.886370711 743665.275678962 -1382.99154099309
 247796.595904216 760654.644363685 -1165.78996341906
 213331.676090242 771030.797970132 -1050.97957611115
 152990.298622500 -785234.126795537 -1155.26752242735
 179005.580883009 -779714.930388033 -1276.45709728973
 215532.269599528 -770417.864779614 -1467.78394084192
 260539.590461038 -756384.163567202 -1455.64663963392
 314927.086082424 -735405.100213000 -518.683276540219
 381258.847112993 -703301.297861473 2995.98471944933
 463376.328508986 -652017.308845808 12482.2731504705
 564677.675178286 -565708.382515226 33363.8892704856
 680277.253110800 -415145.827333498 69834.0958816789
 775247.187306360 -163813.255996389 110258.857845700
 775599.042814533 161994.052818336 110471.949546800
 680953.567785716 413981.573964364 70153.3672598314
 565312.592980428 565059.751268879 33602.8230019326
 463876.303987964 651658.985652386 12623.0351726306
 381634.780169553 703097.003891830 3081.83115494282
 315208.832099240 735284.415145515 -470.117804744867
 260752.933786734 756310.713801602 -1418.34781433144
 215696.202657229 770372.030881220 -1442.98135698794
 179134.245050117 779685.419925510 -1252.28028262866
 153096.498920638 785213.459295210 -1133.73713566782
 92181.6903470215 -794670.413126828 -1212.62756074736
 108429.860224642 -792616.681113846 -1327.49076680201
 131710.459007034 -789081.877338701 -1464.86988783475
 161325.444275179 -783564.103853187 -1181.60152739712
 198875.354009948 -774885.862449759 702.668422122919
 248051.114950093 -760538.225742403 7228.52381984273
 315786.252184830 -734595.903482316 25453.9096812189
 413663.919456402 -681192.079197740 69710.2071308651
 553385.487498408 -555074.413333245 160177.707215775
 704341.530096023 -251143.925030441 284305.712046552
 704995.528200444 248505.719560455 285002.127295776
 554332.487519056 553892.595017807 160992.193802601
 414353.652450873 680723.318613795 70191.2686595948
 316237.692002667 734393.058540596 25701.3175579834
 248350.266307273 760439.434315395 7349.28317519355
 199081.146933676 774832.950438082 771.913848454718
 161472.415865872 783533.887155516 -1143.06316818802
 131818.879811615 789063.829836307 -1433.65591094855
 108512.556439078 792605.401529287 -1304.82246033004
 92248.7170366875 794662.670000830 -1189.58490149590
 30742.0228823041 -799408.149455149 -1240.40872176032
 36264.4606420543 -799176.492538522 -1350.06228267892
 44262.8873121498 -798773.271597170 -1434.36004720472
 54630.2642479816 -798131.975736735 -939.965303471782
 68170.9717745910 -797088.270255225 1734.36698590620
 86822.5635058582 -795199.862566119 10909.6764891789
 114861.550286138 -790807.527251262 37819.0310374195
 162070.799180635 -775677.040610166 109809.766064797
 248515.905065210 -705576.076637095 283552.896312180
 380490.730302175 -383913.780369019 589777.087887353
 381184.097900640 380259.068818476 591693.944610710
 249200.399924188 704664.531428702 285214.057900364
 162441.785971554 775486.570195891 110604.003617344
 115062.837022070 790761.616131651 38165.5602512454
 86941.8633122790 795184.613445682 11069.9116090418
 68247.8920678550 797081.519069422 1810.30005170206
 54683.0974931951 798128.412456878 -892.231816660767
 44300.9151901917 798771.214622340 -1405.56183146447
 36293.0012624736 799175.240464517 -1324.04223681181
 30764.9273124189 799407.302866452 -1217.93729091856
 -30959.7887584808 -799399.743741322 -1241.44526228307
 -36520.6535671227 -799164.827264673 -1349.34282366505
 -44574.6717398826 -798755.928205898 -1437.28745076549
 -55014.1396656321 -798105.608572319 -939.149753274337
 -68648.7523649059 -797047.278037353 1727.82290416731
 -87427.7178337482 -795133.676687213 10900.9335498232
 -115650.781239629 -790694.267608878 37781.9000200206
 -163145.917420675 -775467.994963590 109694.112951044
 -250047.018048976 -705193.213929809 283159.000902607
 -382586.605847967 -383507.022845109 588684.849859594
 -383282.808751304 379855.521985828 590596.368878598
 -250734.560928895 704280.168384824 284818.581513985
 -163519.032974301 775277.162835679 110484.599110506
 -115853.265635397 790647.810149960 38132.1537116040
 -87547.7994507373 795118.320357417 11056.1947944894
 -68726.1869070923 797040.424959360 1808.92614943045
 -55067.3364587021 798101.989078246 -896.373076322356
 -44612.9650358506 798753.848790595 -1404.41906905827
 -36549.3953167440 799163.552324757 -1326.02324868816
 -30982.8556658600 799398.886089197 -1218.02058285977
 -92394.7656377693 -794645.665664644 -1213.80522921729
 -108678.404034284 -792582.635402277 -1330.62216336993
 -132008.751845810 -789032.028685224 -1465.31395672045
 -161685.007407709 -783489.978519908 -1188.25016074174
 -199308.258473611 -774774.633943579 696.205292647000
 -248570.090435743 -760369.006500309 7203.06146711051
 -316400.093117081 -734333.820815422 25393.3196358448
 -414359.293389017 -680787.217089772 69535.1783582857
 -554076.966818838 -554514.147297257 159727.190196384
 -704862.809303086 -250739.782387238 283368.984876190
 -705515.131469322 248105.094301606 284063.833406185
 -555023.665032563 553332.332906412 160536.788974266
 -415049.095615792 680317.339383024 70018.3259105629
 -316852.042103794 734130.493921185 25635.9378547598
 -248869.656018817 760269.811031750 7328.62516591110
 -199514.413133441 774721.511978854 760.150786415430
 -161832.262406007 783459.640409399 -1144.85550613358
 -132117.395601230 789013.894397455 -1438.13327236574
 -108761.278167455 792571.309408309 -1305.32531535549
 -92461.9399331370 794637.885763537 -1191.71013976844
 -153195.105060032 -785194.191228551 -1158.38102018811
 -179240.737208781 -779660.903685683 -1278.04103086246
 -215807.501498266 -770340.802284895 -1473.30653356666
 -260859.510935554 -756273.884012249 -1458.73763591570
 -315292.370513148 -735248.555640038 -531.531219560171
 -381663.411340968 -703081.917668244 2976.15381298621
 -463799.834124856 -651717.176184043 12427.2334995558
 -565071.601889923 -565322.003990413 33243.2931855425
 -680556.609633351 -414731.637548320 69572.7669483368
 -775355.705477213 -163590.860846355 109825.134789273
 -775707.117665283 161774.163801949 110034.483365899
 -681231.627990534 413567.745080994 69894.1288949843
 -565706.143691722 564673.197018339 33477.4485068514
 -464299.676036525 651358.385952014 12572.3459371937
 -382039.455868097 702877.308606217 3056.66591058495
 -315574.278342457 735127.639603297 -477.849266103176
 -261073.024420037 756200.265592410 -1426.26720625845
 -215971.593583189 770294.868036058 -1444.65997766632
 -179369.539378280 779631.316558659 -1256.41722213161
 -153301.427900969 785173.472402806 -1135.97466701849
 -213387.598805965 -771015.288381659 -1075.99143717957
 -247851.363442817 -760636.761098019 -1191.34623467138
 -294936.319931041 -743646.807587825 -1411.64796315003
 -350593.371299215 -719083.980656284 -1586.43139287267
 -414082.971652510 -684495.066385110 -1340.40362225699
 -485699.046783906 -635685.792539803 95.4790394480112
 -565596.372639236 -565759.520501449 4111.96051870362
 -651556.099701329 -464025.847368491 12436.3144035930
 -734211.035009447 -316682.459872589 25423.9194343037
 -790647.289185984 -115949.457611748 37849.5360922152
 -790834.362802620 114644.148329886 37917.4084595693
 -734640.153562288 315676.063187549 25543.4513014290
 -652040.728621720 463341.622717951 12547.0664122059
 -566040.627865351 565314.491003721 4187.34605716928
 -486074.598092209 635398.663933629 151.528402510822
 -414390.498520773 684309.003269375 -1304.90619574372
 -350842.363450075 718962.598561867 -1554.95271087387
 -295137.580967439 743566.996507037 -1389.24662738418
 -248015.393529622 760583.328397481 -1168.39041242573
 -213526.408662172 770976.886607003 -1055.04578536994
 -273408.039854678 -751829.162240758 -977.009305463501
 -314744.508823577 -735482.659056087 -1073.49578183321
 -369357.440262978 -709629.074557041 -1287.58133639562
 -430877.765692050 -674048.963044656 -1531.81286372665
 -496797.740340028 -627048.098685849 -1639.24601656801
 -565627.165384980 -565742.260941340 -1266.47681907795
 -635569.422855226 -485851.313688927 98.5810325047008
 -702980.983786734 -381849.215476520 2985.47721487325
 -760298.711315014 -248784.428632427 7223.40935889464
 -795110.273617404 -87635.8883986531 10936.3546319733
 -795217.308020388 86656.7223405332 10956.5276435425
 -760570.463216594 247950.908159664 7274.45017126163
 -703328.862709027 381207.694580965 3033.88738941122
 -635927.595612811 485382.397912078 144.690120102123
 -565961.696875519 565407.671682548 -1233.88504417025
 -497095.504388288 626812.152323501 -1607.86085619870
 -431136.080665125 673883.819713498 -1509.13122677493
 -369578.375439594 709514.078361821 -1263.73011550517
 -314932.791639963 735402.084945076 -1053.66422385700
 -273572.325965400 751769.425541250 -955.660640297777
 -333900.694603387 -726986.632691962 -872.943627432313
 -380395.390088491 -703774.432627496 -946.139140165507
 -439427.090236632 -668507.720395097 -1122.55882623305
 -502409.111927109 -622561.825825694 -1362.81957439552
 -565641.161494070 -565727.482775984 -1578.49788974671
 -626960.726949274 -496908.004078784 -1637.78682279676
 -684416.055403772 -414213.564353738 -1336.49201764331
 -735183.022004773 -315445.161509241 -523.675795565647
 -774733.460902778 -199468.194820410 709.797640046982
 -797033.849931747 -68803.9682617703 1748.14599245426
 -797098.841477916 68046.6034037630 1759.73855305505
 -774908.716033112 198786.193061576 728.878590595262
 -735426.981700811 314876.023070160 -494.653369007143
 -684690.154343132 413760.401031612 -1312.66284255749
 -627238.834128004 496556.996707909 -1610.58441689038
 -565908.240040359 565460.376711852 -1557.63388308073
 -502657.321726115 622361.489283445 -1339.24307844464
 -439652.728491967 668359.380216226 -1103.27084206308
 -380597.815464938 703665.010926308 -924.803436692512
 -334083.893009901 726902.487329249 -852.259290801424
 -395290.578052848 -695517.613505567 -779.875738430485
 -444993.639508887 -664815.749074912 -824.971877466805
 -505175.759980738 -620319.703229340 -957.764766029039
 -565650.492072105 -565719.189430914 -1148.70719304276
 -622493.474075203 -502493.800725632 -1361.97139980935
 -673986.625610337 -430975.276008581 -1529.69530293409
 -719028.858085702 -350706.425680003 -1582.47487413309
 -756232.430010635 -260979.698101428 -1452.23245255990
 -783464.128615260 -161810.290970681 -1178.51988309182
 -798097.712607986 -55128.7920407974 -925.968694106078
 -798138.769654089 54531.1875350301 -924.100144261986
 -783578.948727757 161253.448965182 -1164.60617247403
 -756401.616454349 260489.009921933 -1438.86592116914
 -719231.780145523 350290.173513174 -1562.29600629800
 -674206.890978938 430630.676023934 -1512.95197715747
 -622719.835834799 502213.309689307 -1340.75679875057
 -565875.419833749 565494.235852173 -1130.68383989465
 -505393.890716017 620142.030356515 -936.702847863154
 -445201.121798017 664676.848344756 -805.247955925360
 -395486.728402059 695406.120951066 -758.024820485017
 -457074.743471565 -656568.482500122 -711.806077829108
 -507721.307718810 -618238.253654323 -731.714941032884
 -565655.831922759 -565714.424991923 -818.026790126471
 -620263.414100570 -505244.872183623 -957.214949002576
 -668456.875594564 -439504.434929518 -1121.22595266484
 -709583.511043917 -369444.974472733 -1285.18147691263
 -743610.052948215 -295028.993706363 -1407.84479395829
 -770313.202077956 -215906.036071494 -1467.75076249597
 -789016.077340460 -132104.143514390 -1457.72583275230
 -798750.879099355 -44665.3667601399 -1427.63797586344
 -798777.479390258 44187.2550428591 -1422.99357793531
 -789092.193709295 131648.776055054 -1452.44285862787
 -770429.872869354 215489.429571243 -1454.89984936590
 -743756.934710323 294658.570028250 -1396.13008404527
 -709751.817867848 369121.591236681 -1268.03635016339
 -668640.245199987 439225.454650827 -1105.66074149275
 -620457.441131194 505006.618250091 -937.693200605978
 -565856.896940565 565513.336142630 -799.268182080343
 -507925.535620137 618070.502560268 -710.021052232825
 -457278.212121895 656426.813877794 -689.014406651481
 -516564.641285925 -610868.645698831 -684.890663096075
 -565657.946076763 -565712.492844355 -680.793687657141
 -618188.343034063 -507782.076937357 -731.353527911251
 -664771.738451681 -445059.385536279 -824.076453249930
 -703735.716493732 -380467.014611463 -944.522998424213
 -735450.615462803 -314819.385164304 -1070.95291867020
 -760611.029947600 -247930.334120697 -1187.66360990947
 -779642.899728072 -179319.068496441 -1273.01892032296
 -792572.026971137 -108755.821606738 -1324.13349227064
 -799161.640969817 -36590.6037234987 -1341.38793018728
 -799179.328644666 36202.2493204723 -1340.82482026800
 -792623.442059426 108380.551288568 -1317.26999998819
 -779723.872698957 178966.702715878 -1265.56799385781
 -760716.661787993 247606.097888197 -1175.06030130551
 -735576.793019173 314524.500882069 -1058.26108035315
 -703879.897492055 380200.248848021 -927.729743562041
 -664932.876347378 444818.635975931 -806.871065180197
 -618366.167687865 507565.540202271 -710.674468982483
 -565851.520357608 565518.897386579 -658.488915505722
 -516769.923191254 610695.023362429 -659.488641480574
 -565657.150746662 -565713.255669186 -707.226511944108
 -610819.311741205 -516622.976252749 -684.698293450502
 -656526.284666441 -457135.353778064 -711.244180147884
 -695481.722411050 -395353.724274928 -778.777312461179
 -726956.790417184 -333965.665870913 -871.140485325253
 -751804.809112296 -273475.007408073 -974.329912708965
 -770996.676718051 -213454.854084213 -1072.26750803324
 -785181.135623239 -153262.042807435 -1153.47123614261
 -794638.279501817 -92458.3495009962 -1207.62491899107
 -799397.470190118 -31018.7344127585 -1234.00529599259
 -799410.126538886 30690.9139853715 -1231.82215588866
 -794675.408068252 92138.7453757017 -1203.08443171715
 -785240.632675673 152956.980443907 -1144.95789939541
 -771076.107387646 213167.795692388 -1061.83594027808
 -751902.386895883 273206.657936201 -960.541308555643
 -727072.024298944 333714.757735287 -855.541649702659
 -695615.666542937 395118.041643978 -760.018061867142
 -656681.319963037 456912.647976246 -690.022419592651
 -610998.208800707 516411.418808406 -659.823171559198
 -565859.796395973 565510.592190110 -678.928199250298
# End: Data Text
# End: Segment
