# OOMMF OVF 2.0
#
# Segment count: 1
#
# Begin: Segment
# Begin: Header
#
# Title: Oxs_TimeDriver::Magnetization
# Desc: Oxs vector field output
# Desc:  MIF source file: C:/Users/Victor H. González/Documents/GitHub/Intro-to-magnetism-in-python/vortex_dynamics/drive-2/vortex_dynamics.mif
# Desc:  Iteration: 124, State id: 819
# Desc:  Stage: 17, Stage iteration: 6
# Desc:  Stage simulation time: 1e-11 s
# Desc:  Total simulation time: 1.8e-10 s
# meshunit: m
# meshtype: rectangular
# xbase: -4.7499999999999995e-08
# ybase: -4.7499999999999995e-08
# zbase: 2.5000000000000001e-09
# xnodes: 20
# ynodes: 20
# znodes: 1
# xstepsize: 5.0000000000000001e-09
# ystepsize: 5.0000000000000001e-09
# zstepsize: 5.0000000000000001e-09
# xmin: -4.9999999999999998e-08
# ymin: -4.9999999999999998e-08
# zmin: 0
# xmax: 4.9999999999999998e-08
# ymax: 4.9999999999999998e-08
# zmax: 5.0000000000000001e-09
# valuedim: 3
# valuelabels: Magnetization_x Magnetization_y Magnetization_z
# valueunits: A/m A/m A/m
#
# End: Header
#
# Begin: Data Text
 679563.677529378 -422125.353626809 1842.28341731204
 705449.481507433 -377278.428255285 1420.07539081033
 731681.351697636 -323483.442173595 928.556645027154
 753559.693897999 -268603.040978101 440.578791060308
 770484.361415967 -215299.435038416 -45.6680214749668
 782938.760595894 -164336.982512569 -503.324178485016
 791608.851852752 -115561.704900730 -958.138197179245
 797046.361235178 -68667.4763610683 -1369.57364284457
 799663.204740909 -23143.3449017548 -1773.29361851853
 799712.669210577 21334.5635815969 -2117.33343546185
 797328.393501348 65279.6200449102 -2450.33127386818
 792525.640430584 109067.432749378 -2721.09785788196
 785154.642129055 153372.868730865 -2991.83563389578
 774897.487087022 198805.165817703 -3223.43767042099
 761154.951764489 246233.581987524 -3487.47845741617
 743085.964864703 296325.917200611 -3768.23782558661
 719580.878064247 349551.385303433 -4145.95667333649
 689687.399562962 405351.407607311 -4639.74512782606
 653719.078769934 461110.691188696 -5319.44768484695
 617459.641334624 508631.760696764 -6109.28256249934
 640621.682022549 -479167.202090645 1628.79195190135
 674893.886537704 -429554.017949493 1259.99106351128
 709385.411220401 -369826.528970210 822.689193172548
 738143.554197002 -308454.172094252 342.220788015700
 760488.929850702 -248307.418389438 -116.392897363633
 777086.771902086 -190094.128874704 -609.181552273148
 788694.183725491 -134016.401184655 -1043.44194643704
 796028.085881611 -79605.2933983891 -1511.20832955835
 799549.874437907 -26766.6296606546 -1883.03556411825
 799603.487735821 25080.7493371598 -2284.38468682389
 796377.788380742 75998.9409311128 -2564.98560377176
 789900.250299883 126685.851994404 -2879.14581665851
 780075.268550395 177406.593190371 -3078.32561853545
 766488.719955903 229093.782990493 -3328.77987654778
 748554.986835904 282228.898623406 -3504.34942874717
 725257.638782406 337619.907827379 -3762.34320618447
 695534.705385571 395240.815232246 -4021.39015210469
 658442.212280411 454350.450961530 -4418.23475299482
 614844.353241688 511802.887691990 -4921.93426916323
 572312.194547343 558952.640436006 -5540.55250139344
 591735.958530758 -538374.096482888 1373.90608071297
 633374.732108022 -488707.785684395 1071.88550995785
 677289.143381415 -425768.703203672 653.934196949141
 715051.008797530 -358750.623701791 211.686590440208
 745181.709506218 -291039.728996375 -309.779124473942
 767927.794144798 -224246.022448784 -790.187196276862
 784126.860472813 -158566.273091337 -1343.02754027230
 794410.798628219 -94383.6978549815 -1789.02266475962
 799384.370777855 -31294.6880639682 -2295.70361160285
 799419.802610445 30348.3370377063 -2637.73261026388
 794793.138557012 91075.0289978338 -3034.13838485022
 785675.967968161 150674.323318169 -3243.70928186922
 771943.329211736 209978.850362949 -3518.36407377654
 753368.148582414 269115.687540169 -3630.34726818728
 729212.594493111 328989.894013851 -3826.44343743872
 698730.748771942 389563.839423059 -3918.63937688236
 660897.035966581 450775.057317091 -4117.71190858442
 615573.068305050 510931.720194482 -4309.85807352169
 564715.993316062 566634.063211629 -4656.74793530930
 517984.903474666 609644.009668013 -5081.46123166011
 539892.146920707 -590351.783042223 1114.42910001474
 586841.886420718 -543705.705045253 840.620853248535
 638962.482004884 -481380.019936741 472.224376713362
 686098.129557223 -411423.572393952 -26.3946633358716
 725143.461833401 -337885.589692507 -536.692108142479
 755681.970093410 -262570.749304665 -1166.91273467748
 777856.940326402 -186910.751168258 -1717.98829028171
 792232.841083334 -111182.491788240 -2361.99677955266
 799166.274039176 -36404.1801079420 -2828.79992409658
 799118.050812307 37403.9163474948 -3359.74817655055
 792494.688075550 109265.182151572 -3645.45489909121
 779582.666413313 179540.943679590 -3989.45742582796
 760653.216407307 247770.048335416 -4085.03575048816
 735472.443207909 314741.382590024 -4259.97266534600
 703855.191252981 380223.509829582 -4237.01771346172
 665118.031193947 444521.549836300 -4312.34412148547
 619206.511768236 506522.496281264 -4272.76781600211
 566676.949611024 564675.318374777 -4361.14639632277
 511023.684048480 615495.493682429 -4482.36523983995
 462491.064979962 652747.383826658 -4782.02061428632
 488180.670591847 -633781.434356293 852.247484586805
 538172.234762838 -591920.825887737 617.746511726676
 596569.327452128 -533015.001891908 212.841456952655
 652134.039583921 -463380.104465640 -270.557518744988
 700629.194625902 -386157.830797103 -928.090478902867
 740037.061183824 -303879.372126737 -1573.29916711489
 769763.716485609 -217849.173893150 -2357.58697317221
 789365.440061802 -129973.882773247 -2998.63850493533
 798926.883674307 -41255.1612433174 -3721.05001948312
 798658.863014088 46114.8024280640 -4176.78417734336
 789138.157520475 131298.108096301 -4666.38570231100
 771197.139659394 212677.455190879 -4824.08900212928
 745401.015401721 290434.343380924 -5021.79479610245
 712416.130048300 363921.701380489 -4924.72449341414
 672259.396644768 433639.463974188 -4911.10038513286
 625428.281726450 498816.059071377 -4690.80261798985
 572310.860437598 558962.635083960 -4588.20282606679
 514892.429608147 612263.265595571 -4413.56255961678
 457028.322518064 656586.212918005 -4433.66917097472
 408904.393557821 687587.209551018 -4585.43247197316
 437594.575843487 -669709.341393029 620.679687170802
 488711.366883780 -633372.768197352 369.302871732647
 551055.369857724 -579946.531075350 -21.0863659083764
 613748.516765026 -513139.715253204 -625.138857234183
 671308.361198914 -435136.064893660 -1299.69738324372
 720673.903465127 -347310.256341595 -2170.41569105220
 759341.083765588 -251778.228305495 -2973.59328935940
 785754.695991819 -150247.693437748 -3897.22252880630
 798655.472710610 -46133.0681156546 -4601.73180763539
 797897.050679000 57720.6185651713 -5350.39346289806
 784344.680930235 157386.854534846 -5727.08617660220
 759511.457635327 251208.256899086 -6062.78701460589
 725335.008176690 337421.645132019 -5979.90883889394
 683103.635755973 416334.590547588 -5910.29022492290
 634342.252111483 487421.041813511 -5534.90592183793
 579916.272086630 551062.066810512 -5264.58846187300
 521659.030352960 606505.134577274 -4835.05766368124
 461623.349271665 653362.715266699 -4587.55997639187
 404157.124869903 690389.532968240 -4394.44931566215
 358023.247496389 715401.430731631 -4488.55870805647
 387900.637830786 -699666.289933292 421.783655733946
 438391.957091310 -669187.910564803 179.754179849630
 502660.839748633 -622360.020038022 -292.645641320663
 570522.629041528 -560805.776682735 -900.328172284693
 636673.049696969 -484401.057839320 -1744.40640609134
 696489.534600468 -393567.750696090 -2598.80819672950
 746027.308356745 -288843.026450433 -3600.17457148745
 781046.150871515 -173052.042979662 -4461.01214479352
 798403.628525216 -50217.9313643353 -5459.42554271437
 796673.301416538 72613.2066412944 -6242.83840432636
 777185.866005306 189560.300425953 -7001.58439251272
 743333.215858327 295640.940733960 -7222.49012862298
 698626.001790727 389703.587242209 -7267.99232642859
 646515.167190757 471138.539722176 -6827.51644181979
 589146.563950142 541170.329733186 -6403.15564515555
 528928.995362070 600167.728555224 -5728.47851825375
 467500.472203311 649165.585631930 -5229.81078393240
 407579.300901474 688372.776681977 -4694.01744898142
 352389.266751282 718193.545808754 -4453.69926500759
 309593.766309195 737653.092496114 -4428.88173332770
 338019.516675278 -725081.176838317 305.518201908693
 386455.232369104 -700465.811260646 25.0899823253098
 450366.165577515 -661188.421922429 -433.149783797043
 521542.797295540 -606623.311763414 -1126.15022571878
 594933.111563613 -534837.476552497 -1861.83785396963
 665927.572267941 -443320.715096116 -2685.52788033954
 728271.049618999 -331074.564122071 -3303.22239990842
 774826.021634477 -199069.274447076 -4007.51409275440
 798159.636154920 -54017.4323493941 -4828.27250952353
 794540.616402188 93093.9689350764 -6222.68713225316
 766356.121254775 229440.269699951 -7447.01654017386
 720133.520649423 348336.883194906 -8314.33960857467
 663107.235527103 447459.260770759 -8306.87318364629
 600353.106339494 528689.781443436 -7953.78562775186
 535847.661446135 593983.715917940 -7115.40209845180
 471633.361137082 646159.000718243 -6365.41069684947
 409956.203760066 686953.932522651 -5495.96127173236
 352241.304013688 718263.112467322 -4915.79245825028
 301305.212951342 741077.031682911 -4472.33276865256
 262724.990369245 755616.294520441 -4426.61164753273
 286562.076985130 -746915.051236127 286.829044477554
 331296.379840927 -728177.662410832 25.8880749813750
 392673.535108670 -696998.779649736 -442.709882540548
 464402.564333713 -651405.690154427 -940.784091482497
 543455.540258265 -587072.546049604 -1378.92618866747
 625462.653103684 -498793.355886089 -1287.51558957082
 703514.018248489 -380877.483242950 -607.360174929332
 765791.225041356 -231438.054126865 476.184449947396
 797961.272479559 -57076.3306636305 316.387070067363
 790726.933438657 121435.591358916 -2076.98965038824
 748903.202553899 281270.201974582 -5573.74969760076
 686186.795623603 411198.444741143 -7969.97831084692
 614586.882074833 512056.495385611 -9006.10431549616
 542060.797600950 588298.073968586 -8687.22447473119
 472216.504661698 645715.653614328 -7928.89667670581
 407338.615856968 688497.680850405 -6796.72681098073
 347942.263070567 720348.225671657 -5883.48034991734
 295110.108135546 743562.242279146 -5021.54687681180
 249822.581672681 759978.836325308 -4565.74462999313
 216463.550320775 770145.466360525 -4414.97755997871
 231956.437455659 -765634.396156479 427.252831324960
 271253.359448247 -752609.845751942 187.257253972452
 327063.827662060 -730088.520226604 -72.5835324926069
 396034.256581322 -695094.847452368 -143.733258070942
 477271.039884402 -642037.305919935 672.528611462380
 569354.421374492 -561983.162631130 3235.39494207252
 665842.658184202 -443373.043348001 8596.45127527464
 751089.854110523 -274989.152211211 15652.3869870864
 797470.317441062 -60556.7521804196 19338.3702987841
 782993.700105312 163522.959971774 13457.6059334786
 719199.557176094 350343.363031753 3394.83980665593
 634140.924494261 487694.495202688 -4400.82157779296
 547383.703519069 583357.597084839 -8061.95045579370
 467107.383269210 649407.205401436 -8998.55922296803
 396152.999660988 694977.565401803 -8305.68767682785
 334135.227431792 726843.020293140 -7271.42628724017
 280730.415253083 749101.917405768 -6062.28429179162
 234928.556607138 764710.061815507 -5205.25202172748
 197140.707963130 775315.832252994 -4571.81819900233
 169766.416313986 781767.108821787 -4421.70287677770
 172915.899875078 -781088.696223720 734.984300044003
 204478.129891450 -773426.339764914 625.582882374543
 251163.046829733 -759550.260330998 725.216049251545
 312009.907458452 -736645.564710848 1769.07874451491
 389659.637235922 -698669.002583155 5195.37665892320
 486859.981277179 -634643.611454140 13958.6916017301
 602956.877528206 -524831.467538214 31542.5826957758
 721611.998983909 -340529.065499615 57585.4015563475
 793683.277355526 -66100.0222599792 75482.7285107193
 764091.052427268 229558.403051112 58888.0564224372
 663831.060253512 445564.937580567 28287.9805133343
 551571.998343254 579419.984630046 6388.43133693914
 452250.243759588 659886.428343979 -4429.30094033323
 370649.738019068 708910.883314277 -8008.19736060299
 304418.346080683 739769.821217504 -8371.51033712350
 250835.497713676 759623.209462331 -7357.49501398505
 206888.078993632 772760.053159592 -6262.82772467602
 171063.673947099 781479.411088547 -5210.51824849533
 142222.453448049 787242.989095086 -4609.75659352835
 121880.287412568 790649.124462983 -4376.93113358773
 108589.774138156 -792594.958778577 1221.58561246130
 129956.173526495 -789373.002108007 1287.05296799019
 162812.495383411 -783254.677888654 2049.61278468012
 208509.653156135 -772334.584088022 4797.37035168746
 271838.474872507 -752288.327869459 12888.5736357234
 361312.826780996 -712980.228307314 33350.1910995338
 486964.818166788 -629856.148599403 78399.6042038257
 646007.271676581 -445241.319890788 156316.256361553
 763779.489827258 -79201.3857405163 224428.232216883
 703669.075442390 339595.851117842 171826.919222809
 550996.251862777 574020.717257170 83086.3803083011
 416748.089420264 682302.375814795 28008.8900537817
 318270.374228976 733957.522516843 3213.10271951086
 247258.330137621 760809.209814545 -5715.28117618891
 195305.914372238 775755.703775515 -7660.80093587638
 156099.572706861 784588.934563773 -7288.83809806829
 126130.619681418 789970.321530479 -6160.99665756587
 102669.335951266 793367.318696130 -5225.42632135223
 84661.6240042272 795494.806251706 -4519.14234416590
 72172.7661693651 796726.103635225 -4313.65386831728
 39047.9599451387 -799044.414734134 1811.10637697703
 47696.8686337681 -798574.088026685 2105.86202821375
 62157.9054197346 -797573.669880256 3554.70217765578
 84159.8609426343 -795517.487271153 8309.34726118386
 118283.868375223 -790903.682502163 21915.5535341959
 173150.244532602 -778862.679665279 58240.1840907159
 265928.985262051 -739923.890754597 147629.301590416
 419169.307590254 -593045.527460528 335550.434261933
 572534.240367514 -106627.883025859 548484.309865121
 480502.513876026 505924.324919332 391353.946720533
 312217.282000832 716810.948735620 169417.922879353
 202885.978932834 771695.408131435 57649.6020916343
 137270.608967017 788028.824788070 12936.4298381649
 96192.6200481888 794192.064717186 -2438.07065460098
 69110.3095058888 796981.720233442 -6625.91380436569
 50969.0641823346 798345.779688166 -6794.89149800265
 38467.7544950498 799052.057477639 -6003.44108500189
 29988.7710524495 799421.901198023 -5029.66158932313
 24094.2167444251 799624.851014168 -4423.38784670238
 20408.3975043167 799728.730193635 -4177.96770949517
 -34718.0186410909 -799242.648601452 2418.23038072443
 -40360.8216621310 -798976.166222983 2844.27185435508
 -47511.4631757964 -798573.883470211 4734.29046427172
 -54994.1207631664 -798038.210790714 10519.5436898531
 -62787.1466416463 -797078.016060171 26914.8756300684
 -72103.8948062463 -793559.925639982 71159.4882783473
 -87663.4732866987 -773340.807013791 185092.170711161
 -118841.398788889 -653566.225359877 445789.088025653
 -155583.326576400 -117996.450164609 775803.239384814
 -135575.830991351 583530.563239845 530199.279343148
 -101400.972254439 763510.475959635 216262.793669523
 -85698.9841111691 792058.483847480 72794.5209994907
 -78565.2456596963 795920.718870540 18376.9270291347
 -73569.3591212627 796609.985423289 -283.764678908484
 -68065.6103758002 797080.058645098 -5518.40506819083
 -61646.1065718054 797596.661446584 -6270.82082358322
 -54224.4359627554 798140.630032472 -5589.74381252729
 -46527.8088540468 798631.266649350 -4823.16631431490
 -39146.6677117489 799030.566088741 -4206.28850300860
 -33485.3592429790 799288.791665382 -4019.73064550532
 -110913.873669888 -792268.484811640 2959.83138188138
 -131011.748040487 -789192.295347318 3382.72668257282
 -159397.135932481 -783942.611562414 5151.19726109975
 -195119.832244788 -775772.085210611 10291.8838287927
 -240954.033860663 -762476.877935835 23878.1108862357
 -304664.720657678 -737456.376286486 57771.1092240983
 -400981.216830031 -678871.860330872 135451.323361604
 -543481.861086791 -513755.075811430 284047.863480135
 -667130.418045292 -84793.0261624055 433297.989878715
 -596805.502774622 426460.216299991 319303.735918164
 -452572.282491317 642607.809287702 149109.129710628
 -350499.280598345 717019.642294831 55073.4678718928
 -285492.660986125 747181.546024030 14617.7222644546
 -240515.057263402 762989.106742891 -360.861840774343
 -205695.706161795 773087.741038777 -4961.96756949653
 -175993.444203577 780381.070577522 -5629.58982899068
 -149483.573944365 785892.968440350 -5186.83688133498
 -125462.356142105 790088.092196532 -4472.55637350768
 -104673.260782621 793112.533266372 -4002.25598039072
 -89271.4710780123 794994.328601778 -3823.86487418391
 -187655.176584636 -777671.919083617 3452.67574382198
 -220748.052049432 -768931.933648746 3738.84094122744
 -266825.425678484 -754174.179482988 5049.67451000573
 -322878.800836992 -731898.445560762 8599.14855120858
 -390619.141961687 -697939.625706773 17232.6666945164
 -474654.437428565 -642939.679921702 36492.9172792758
 -580070.318473700 -545864.634355125 74499.8428600135
 -699236.166447306 -365086.449586587 133344.170702495
 -777608.455294349 -58740.6435443557 178534.666243648
 -737514.468253131 276222.467000869 140618.483284579
 -630676.171250174 486473.433078657 74774.0992983962
 -529340.230943029 599082.312013593 29988.3867126679
 -449134.654401221 661981.775818842 7628.28287547687
 -385725.074972453 700866.278607643 -1620.50861488853
 -332827.303388197 727464.738046152 -4587.04902794152
 -286354.446598784 746977.402375231 -5088.34490337839
 -244020.158905408 761861.097158063 -4672.33184759234
 -205455.330284077 773156.336295882 -4169.76059138280
 -171671.315933143 781354.471765604 -3761.48078265007
 -146602.566922240 786444.058457517 -3664.73582667297
 -263273.634409541 -755427.850617627 3969.37476499912
 -306987.242596644 -738743.687368868 4073.97294515044
 -365391.148215974 -711664.181948337 4837.45152088984
 -432145.130210221 -673203.868433369 6865.70913592625
 -505900.465162178 -619624.897194650 11388.8596976552
 -586856.056572099 -543305.231069375 20479.1297983651
 -672870.444064218 -431208.214870621 36122.5820355278
 -752233.042777398 -266387.139422942 56421.1069008644
 -795772.695611806 -45246.7402878223 68545.9656875988
 -776277.448681697 185190.324820750 55658.4787882256
 -712168.631158460 363049.308985845 31796.8558003044
 -636780.972388270 484088.292524607 12981.4577324729
 -565647.003875978 565719.233644209 2283.78876806878
 -501520.142861899 623274.486774722 -2541.73946088128
 -442933.880427859 666176.761195634 -4254.45789923989
 -387791.376108355 699712.590067746 -4487.75185093908
 -335015.000415831 726461.910246304 -4247.64142457190
 -284747.708139100 747598.710353205 -3861.47481600048
 -239290.163273510 763365.642357653 -3621.30203460929
 -204772.248203665 773340.509430449 -3575.30970274917
 -336029.872826755 -725990.777689751 4616.84713481886
 -387623.577519905 -699805.345678916 4521.09609301154
 -452763.947699437 -659531.317394617 4821.72576395654
 -521675.077006494 -606483.357688740 5748.98920339894
 -591079.186655931 -539041.060589717 7754.36009454205
 -659201.670445657 -453124.772422320 11449.8165432984
 -722721.105160244 -342608.675651053 17131.8278239027
 -773594.825846919 -202489.119094665 23435.0607240868
 -798713.297102855 -37082.7922848781 26113.8956772918
 -788930.107828172 130935.476605704 21099.4295720380
 -751125.051900652 275067.825761409 12200.3130342935
 -699681.569751938 387847.747745667 4452.58554956048
 -644262.350909761 474263.496274044 -399.126731622530
 -588605.515059037 541789.077051159 -2853.70463417989
 -533030.107822806 596543.856180537 -3785.73740016468
 -476809.461733497 642368.043428357 -4004.24567641242
 -419339.252312268 681277.875715080 -3879.11476189051
 -361350.328982328 713731.127721842 -3717.13132279450
 -306018.966557967 739147.779151482 -3598.98349888768
 -262395.628527376 755734.865095338 -3653.46534903369
 -402709.241584480 -691227.395799961 5473.02823467138
 -459647.598624969 -654749.809930931 5174.11574180957
 -526310.365432999 -602471.019478255 5105.87177812633
 -591324.141814630 -538801.443886618 5363.14953065611
 -651403.488442881 -464367.048923999 6061.28023281083
 -705216.993512771 -377644.203051258 7338.11710106957
 -750724.600753101 -276277.935038901 9114.62751499265
 -783894.502862477 -159355.520900807 10734.3532838336
 -799323.018866704 -31077.3687422746 10812.4308957215
 -793998.170011332 97450.5275863814 8384.55078060974
 -770836.644250989 213985.745905901 4579.12971741039
 -736128.789412910 313230.301004597 1088.08549842320
 -695067.785218817 396079.477694030 -1349.55571689519
 -650191.389289422 466094.100379600 -2728.89816999348
 -601975.268637762 526891.021564587 -3409.88901880187
 -549764.973841155 581158.377866583 -3662.42718903555
 -492859.926483635 630138.923028316 -3745.73774583512
 -431514.324051163 673632.903801678 -3754.87075515000
 -368932.474956494 709841.014393739 -3816.17700631569
 -316280.588170967 734813.506225420 -3962.40014790190
 -455079.096212044 -657921.937030446 6460.72479957379
 -514856.413319423 -612280.426119909 5962.67174037324
 -579162.402823711 -551850.619414003 5639.59287961811
 -637856.730489985 -482812.559105105 5551.94911761155
 -688785.790118855 -406867.886937850 5714.70988540252
 -731596.658428623 -323618.490632450 6115.70902253266
 -765589.790198346 -232009.411719138 6626.16161828281
 -788991.128117460 -132082.428277760 6872.54626672881
 -799529.540824401 -26698.2907539649 6301.95366064735
 -796164.410405563 78107.4672922808 4631.97115131882
 -780420.115594166 175894.715738413 2343.53393211942
 -755452.989205814 263231.376437385 153.489028842780
 -724109.289843416 340093.295018472 -1512.29823185904
 -687895.819871667 408402.408229724 -2610.35538739482
 -646913.581062590 470629.583244885 -3257.91521095409
 -600302.083182449 528795.046204480 -3634.28623157820
 -546849.613849190 583901.193682648 -3859.51408500441
 -486011.610651031 635434.002052742 -4042.69064215876
 -419835.500672021 680970.001406922 -4243.76711568938
 -358745.233757777 715039.581532647 -4500.45527662093
# End: Data Text
# End: Segment
