# OOMMF OVF 2.0
#
# Segment count: 1
#
# Begin: Segment
# Begin: Header
#
# Title: Oxs_TimeDriver::Magnetization
# Desc: Oxs vector field output
# Desc:  MIF source file: C:/Users/Victor H. González/Documents/GitHub/Intro-to-magnetism-in-python/vortex_dynamics/drive-2/vortex_dynamics.mif
# Desc:  Iteration: 1790, State id: 11291
# Desc:  Stage: 255, Stage iteration: 6
# Desc:  Stage simulation time: 1e-11 s
# Desc:  Total simulation time: 2.56e-09 s
# meshunit: m
# meshtype: rectangular
# xbase: -4.7499999999999995e-08
# ybase: -4.7499999999999995e-08
# zbase: 2.5000000000000001e-09
# xnodes: 20
# ynodes: 20
# znodes: 1
# xstepsize: 5.0000000000000001e-09
# ystepsize: 5.0000000000000001e-09
# zstepsize: 5.0000000000000001e-09
# xmin: -4.9999999999999998e-08
# ymin: -4.9999999999999998e-08
# zmin: 0
# xmax: 4.9999999999999998e-08
# ymax: 4.9999999999999998e-08
# zmax: 5.0000000000000001e-09
# valuedim: 3
# valuelabels: Magnetization_x Magnetization_y Magnetization_z
# valueunits: A/m A/m A/m
#
# End: Header
#
# Begin: Data Text
 579364.751449524 -551665.196974163 -1412.52443832412
 622451.219453560 -502546.313560182 -1296.96871484209
 665864.164583249 -443422.320745616 -1248.91489887285
 702661.773632301 -382445.912309686 -1247.41072674416
 732182.484715212 -322346.251804276 -1304.99961395237
 755319.758995875 -263609.946272411 -1363.04683301406
 773050.186021989 -205891.470332114 -1453.38771469665
 786095.397854917 -148498.352302095 -1504.93683635259
 794806.331570789 -90996.9291731819 -1566.58100189546
 799311.841413584 -33137.9940781134 -1566.37304143028
 799611.159705386 24890.4828594366 -1567.52595902985
 795692.015101995 82897.2423422233 -1504.76409471126
 787535.020926069 140664.505609091 -1444.87948457238
 775011.697493342 198381.164856135 -1334.98270135378
 757784.831493646 256438.311689893 -1241.55377783903
 735168.199735533 315478.115274129 -1129.99145995828
 706217.931269783 375839.213904929 -1057.75439167591
 670079.313751903 437027.112761584 -1007.96480794160
 627415.817724834 496334.911765896 -1023.24533657779
 585078.705734847 545602.159887729 -1091.43093389998
 531044.387597394 -598322.791236502 -1302.26274976556
 578768.718392462 -552290.900242541 -1237.78820163662
 629376.315906206 -493846.112703127 -1212.41261155044
 673805.877563515 -431258.617660224 -1282.20694699694
 710625.099356443 -367437.311674374 -1337.96642501725
 740248.715355802 -303363.898438861 -1478.01828870729
 763535.321377683 -238770.674685823 -1542.05017921022
 780987.166408976 -173367.384821162 -1672.06003194399
 792854.612624898 -106671.170423841 -1680.66648428268
 799047.537462251 -38986.9718012187 -1746.11147504100
 799461.199361008 29307.9983689709 -1682.83922701032
 794066.660990024 97238.4855857332 -1677.74406495902
 782932.554646221 164360.002641671 -1550.61496526325
 766130.398431850 230308.561548084 -1476.16947078280
 743437.195005679 295464.755348380 -1309.74387193629
 714368.230301669 360106.333447438 -1208.36530265678
 678112.706628589 424454.958161783 -1070.32739292389
 634250.218447210 487571.159900867 -1012.14257332212
 584201.171124460 546541.889359392 -977.155195199868
 536903.295345954 593071.500903903 -1022.86961389679
 472569.851853340 -645504.579670737 -1254.09067316249
 522642.547390121 -605675.898815183 -1213.77592049956
 579267.270454067 -551767.859200469 -1287.99612874437
 632037.007814421 -490435.891795190 -1362.64157108135
 677936.625788971 -424734.622390617 -1559.47316867120
 716601.321696406 -355639.945367411 -1665.83373392951
 748078.057808873 -283506.094767795 -1874.47443794239
 772521.587813133 -207862.330888067 -1909.91111188666
 789532.305187783 -128975.291164320 -2028.13558330938
 798601.272827649 -47245.8559115855 -1958.60594321318
 799208.514103461 35520.6916106061 -2007.84761445034
 791296.151133718 117672.433427470 -1897.26440505884
 775283.149782677 197313.181037256 -1883.14949212041
 751663.037737048 273860.929181175 -1693.86184104133
 720836.273430075 346976.327715571 -1579.52918902473
 682713.858056628 417013.152624164 -1348.53842697782
 637245.840034019 483648.900976253 -1216.52940798932
 584832.579374662 545866.048747707 -1054.00500271514
 528430.497979293 600633.168781627 -1002.67876109374
 478443.006853864 641164.016178648 -996.769933357604
 412034.867847432 -685730.057758412 -1247.22275280792
 461903.272791960 -653179.706160259 -1279.86111567506
 521666.727896514 -606516.259680705 -1360.78972411438
 580828.320735143 -550123.535378934 -1599.26676203329
 635623.417066983 -485777.471497294 -1766.31304940621
 684274.700112062 -414444.071264748 -2060.72318598819
 726086.321275063 -335848.273344769 -2142.74323772780
 759932.427498537 -249995.013568529 -2280.09364967944
 784493.763460242 -156732.206953013 -2133.16563449777
 797898.005175460 -57916.1158041532 -2120.58180283777
 798810.141213720 43570.3271861409 -1996.21717529510
 787085.026591459 143152.594490456 -2120.28445600376
 763873.501612443 237682.588178910 -2064.17318057499
 730980.768803551 325058.208370233 -2068.04509220625
 689809.656392556 405165.773530476 -1825.89896617266
 641520.661629898 477962.876737640 -1652.01774150778
 586915.015626095 543625.709268742 -1361.12257978098
 527746.510646454 601233.884225197 -1198.73265373863
 467848.371113127 648935.138013219 -1043.21549012388
 417751.640499105 682262.790663008 -1025.34727399179
 352141.258890538 -718327.820763656 -1294.48983178436
 399610.370200027 -693043.856140945 -1328.71888996221
 459159.002086010 -655111.139042701 -1551.22711289833
 521858.624247059 -606350.124546178 -1761.46581088053
 583540.036092090 -547244.451064523 -2130.03679124015
 642144.807618885 -477121.431747433 -2277.15071606212
 695564.569800098 -395201.384630319 -2407.24429275771
 741644.631946578 -299931.693483113 -2054.05676083927
 776781.018235328 -191333.823234764 -1617.96033784374
 796816.469362619 -71291.6683655721 -1006.06865757104
 798201.202141551 53607.9723089547 -1013.01762363120
 780620.105850066 175015.719970550 -1322.15952921846
 747205.487397841 285797.716930547 -1903.83818690665
 702124.345378047 383428.006458350 -2089.85425939971
 649106.834754004 467606.372925186 -2144.07914733585
 590546.752935955 539676.834353776 -1856.62561823739
 528615.676945717 600468.842057916 -1623.51619892119
 465529.539848575 650600.138432153 -1306.67533792071
 405469.133220949 689632.839921781 -1152.43501859435
 357547.088829322 715652.804754470 -1068.79218654915
 293445.118784655 -744236.635627752 -1338.82446358181
 336518.769258475 -725777.513425654 -1455.65876366477
 392916.555246548 -696860.004121791 -1647.80719857530
 455381.178498359 -657741.455138402 -2039.72102559557
 521098.206458721 -607002.120623281 -2254.94663869219
 587776.357705691 -542690.694144241 -2400.79392533739
 653499.427741693 -461449.053329930 -1808.07140134613
 714455.880727652 -359934.018897658 -544.549221549830
 764672.329498337 -235102.824546214 1700.11469606116
 795000.919188888 -89222.2538622495 3595.53953716343
 797169.170042983 67126.1403546859 3923.72451437881
 770405.801102389 215569.904159795 2125.57011741288
 722243.637274817 344040.874772976 70.0106220402244
 662007.347277081 449159.325697604 -1473.86907017753
 596209.751635109 533413.490240197 -1995.11527804740
 528975.145281658 600150.796976270 -2077.63399008441
 462541.144517485 652727.061847659 -1752.81492935941
 399242.989505611 693255.222130404 -1494.09489189648
 342077.191816367 723174.739747586 -1220.91360832445
 298375.592842507 742274.008274857 -1141.15531827100
 235419.028982635 -764575.629852444 -1409.62002417085
 272541.982424374 -752142.677753711 -1503.36877356294
 322684.511627462 -732032.344448208 -1831.02086448772
 381229.244331598 -703320.641285049 -2082.98073616370
 446431.325951629 -663847.716286369 -2297.99705034674
 517962.873892890 -609681.647033065 -1658.47510306098
 594434.707599142 -535394.517840802 297.770948257546
 672806.960403633 -432789.441778492 4908.47404855156
 744129.982235489 -293476.825332200 11913.1243233632
 791540.344779189 -114492.700599450 18849.5118315361
 795096.833046446 86255.0921957777 19521.4023525488
 752860.091891372 270225.026205178 13420.7767929169
 683520.917863658 415646.455742050 6097.43158177968
 605081.819387898 523330.120420447 1255.74955780278
 527585.146468360 601375.499502549 -1192.40262467403
 454804.485235443 658140.887611241 -1858.02691365365
 388308.568173392 699437.549636621 -1889.45533176154
 328647.029818241 729375.563175223 -1554.87442392087
 277521.421463500 750319.987148025 -1333.23481275530
 239719.230738010 763238.675519258 -1189.37209736212
 177336.535001158 -780095.947908456 -1437.15364185233
 206880.143643357 -772785.892157779 -1603.44878602301
 248150.549198376 -760537.949380916 -1825.50924852033
 298202.271905164 -742341.512803202 -2117.40398891995
 357626.148116557 -715612.051971531 -1711.50705791157
 427585.751427730 -676143.776797043 135.183631594837
 510284.442636737 -616096.964735471 5858.12654820512
 605495.351929014 -522537.935945068 18151.7021413474
 705624.905124824 -374919.537480176 39100.3028534895
 782546.191020451 -154393.870024582 61514.1594936924
 788810.054356450 116947.228722254 64047.2000977361
 719105.935021514 347892.229442567 43100.4745950218
 619774.079099978 505395.811428058 21334.5885066894
 522715.537906307 605566.068321964 7629.11059031926
 437751.490026532 669605.972621214 1214.25267076822
 365718.597488430 711511.321927733 -1243.47084626020
 304668.316968319 739712.309546374 -1707.55417534415
 253281.907226577 758844.914830648 -1634.22989027431
 211039.419295705 771660.896765304 -1350.52089897343
 180818.582809025 779296.546163444 -1238.24418512784
 118475.530925974 -791177.224011939 -1465.87058426605
 139169.855835939 -787800.271875379 -1575.70926336050
 168606.719663686 -782028.323273196 -1864.31831121079
 205933.946670757 -773038.167108803 -1789.35789314361
 252332.406117652 -759162.543965395 -767.243680922359
 311545.468694277 -736835.068593719 3674.59202539903
 388808.376059138 -698981.409890791 15907.0843758000
 491841.632831397 -629346.606513446 44884.9315890604
 622810.279927593 -492009.914620343 100167.854782836
 748790.302238049 -223866.031726332 170871.539799220
 760498.301112552 171754.119773813 179284.289176838
 642980.208740844 462777.639654686 111415.023238422
 509060.696188278 614942.439359865 51990.4209489068
 401558.031925099 691639.561620229 19643.4161545010
 320759.707483326 732860.672050706 5333.42447201613
 259128.517763726 756870.128842539 139.095124646034
 210992.830073736 771673.516229243 -1417.74746427301
 172498.662847380 781179.814865843 -1519.26364856532
 142191.286186125 787260.901106579 -1382.65020576184
 120973.840342425 790799.475598450 -1232.61754904125
 58609.8475846575 -797848.884776485 -1429.27499839585
 69155.5136599754 -797003.758902872 -1588.46627862001
 84643.1705040654 -795507.785243804 -1702.14673814835
 104664.269030651 -793122.384457594 -1507.99886642817
 131030.194344594 -789196.253327005 601.585102890695
 166635.997224023 -782413.671950124 7828.81693998597
 218308.394942785 -769081.561960246 29240.3103658783
 298323.199034420 -737499.505649773 84248.1340102651
 426847.966058215 -643784.173683114 208189.220631417
 595216.069044612 -345362.525427476 407973.721189779
 614095.723566755 271157.251036810 435155.360195856
 450213.649952594 617945.048596247 235481.605039005
 313481.750347406 729417.926114601 98380.2889902286
 227620.927577331 766117.118418676 35401.6128827487
 172673.784646434 781071.616233663 10530.6414814607
 135122.262201712 788504.399333028 1669.27827306203
 107620.005166677 792727.662854090 -887.149264118233
 86800.8865440528 795275.773644987 -1431.76413333521
 70828.3980695548 796857.350957223 -1303.93724486437
 59956.1483438338 797749.201609417 -1213.09822704619
 -2194.67594754717 -799995.783541923 -1389.14096816044
 -2386.30362536565 -799995.071439964 -1480.27928927134
 -2580.47609964646 -799994.126223468 -1655.03808090890
 -2348.91160368200 -799995.706037287 -1163.15784846034
 -1794.01516252785 -799996.941899077 1294.00993864199
 -259.262475912297 -799932.890342324 10358.7514472201
 2393.28422234488 -799129.826227042 37226.2410802909
 7442.77578979433 -792183.603091105 111309.227300064
 16658.4494434982 -742278.384770364 297901.486342111
 31600.3469133876 -454380.298360085 657677.704150865
 33797.1845827810 363784.614481521 711701.134311874
 18807.9361566318 722977.634874559 341978.948195231
 8713.44680389350 789181.304024520 130831.743942189
 3194.37441857003 798717.761241671 45163.4127271843
 240.547882203547 799886.993095262 13443.9731380662
 -1419.20873545637 799994.271953127 2674.07717759687
 -2115.77987087572 799996.963493883 -617.961248910276
 -2382.50281845124 799995.476047675 -1249.79341283528
 -2259.99220760115 799995.819437677 -1257.50445763046
 -2081.30012154676 799996.482128305 -1138.75903514300
 -63436.6246763344 -797479.862710096 -1289.65947425315
 -74582.3302508012 -796514.547544029 -1432.32855531336
 -90324.0461302228 -794883.192973524 -1508.71431359862
 -110341.994635129 -792352.917118470 -1224.31768445093
 -135432.989835353 -788452.159997615 1047.21504609044
 -168749.960421085 -781951.753396426 8654.83784577318
 -215921.052806697 -769687.638502147 30968.3401530911
 -289450.258757691 -740542.069905220 88408.0901592080
 -409625.399810589 -651357.920703708 218951.800555637
 -571962.593150645 -354090.880564791 432987.806222347
 -590177.121459328 278918.368051498 462488.388253663
 -431387.339360502 626439.417277905 247948.825203883
 -303005.519499639 733167.875037770 103211.056410419
 -224023.655453527 767081.984073049 37398.2821503220
 -173846.437725144 780798.367339372 11459.7404180145
 -138906.385865799 787845.341659485 2175.68176704184
 -112786.333163457 792009.410912110 -579.722515694510
 -92164.2506116602 794672.434411956 -1213.62884176968
 -75973.4464047669 796383.541396368 -1135.97286931316
 -64579.7563309047 797388.446008901 -1058.88797898175
 -124736.295275281 -790214.803814755 -1191.83598130549
 -146131.011025172 -786539.308461783 -1282.13151472839
 -176335.723436595 -780322.682676969 -1491.15388579891
 -213630.762312354 -770947.619292998 -1290.62012291257
 -259455.943172744 -756757.962331395 0.613808543777804
 -316628.000240960 -734658.052317159 4925.00040291193
 -391004.961252562 -697698.829868237 18206.1274403402
 -490183.909492117 -630303.430874653 49369.2201950365
 -618281.164167079 -495810.624244563 109088.161238599
 -743954.187565232 -227662.287052697 186284.862128118
 -755668.455364246 175230.162679008 195600.551264316
 -637977.538443017 467192.169805335 121310.085791625
 -506602.654375859 616521.752107073 57049.8006846555
 -402893.631953755 690784.638979082 22210.4453275981
 -325165.447671845 730904.883241175 6744.13037919917
 -265665.092941153 754599.966635884 974.035774479059
 -218309.310354508 769636.480604649 -855.999432585702
 -179892.504355200 779511.021297177 -1120.06832215576
 -148941.110556308 786012.362281691 -1054.47930696176
 -127042.951298520 789847.589850762 -934.522500537240
 -185848.300604778 -778112.662973488 -1045.41026614022
 -216518.008040508 -770141.911519796 -1178.26771340270
 -258638.119203340 -757036.696273879 -1328.07744097067
 -309158.231223488 -737847.605985738 -1448.58823687542
 -367784.180509142 -710446.448132558 -800.564208265084
 -436155.666323126 -670645.902960414 1519.07097925021
 -515998.621185827 -611294.730110609 8010.98454134735
 -608216.557717766 -519231.734254953 21703.1117710133
 -705812.746215966 -373928.770145227 44784.3961302675
 -781837.584391261 -154548.145741766 69605.0449394264
 -788027.109944255 117347.070240238 72408.1424905943
 -718952.074684840 347394.711270947 49242.5515925031
 -621895.764722135 502604.062459410 25195.5198392043
 -527802.431737880 601102.556601973 10015.4629524820
 -445705.303601022 664333.838196244 2708.09330839879
 -375430.738853932 706435.920072003 -226.176068054842
 -315233.659173941 735273.247877649 -995.529638948565
 -263533.254368825 755346.983171522 -1076.50148934099
 -220470.336311699 769020.176150435 -894.136544027635
 -189188.848037177 777307.487930102 -805.596773111432
 -247025.574386501 -760905.738504925 -907.033237899029
 -285454.096825380 -747338.604289180 -984.451475306111
 -336817.043978018 -725639.581323897 -1215.27856409842
 -395465.534508956 -695417.293418837 -1341.27907803654
 -459822.749503098 -654645.965150275 -1303.59191274984
 -529000.607911712 -600131.850519641 -344.704088864846
 -602471.004889117 -526330.681261812 2168.46267539668
 -677321.467054807 -425651.402717145 7517.55489838588
 -745850.925982471 -288902.812176806 15542.2433202105
 -791639.285218836 -112970.668240334 23342.4552166882
 -795076.609950076 85265.4512392131 24145.1265324880
 -754208.734893844 266219.668765714 17212.5585576555
 -687504.450504136 408972.004549392 8917.96119397081
 -612499.461385009 514620.172332568 3238.52303868491
 -538088.723869773 591997.010582490 254.372942146415
 -467712.469839716 649033.428158456 -809.128737657036
 -402231.115060955 691526.572913151 -1062.55908639041
 -342525.873117891 722962.802364003 -901.467033991626
 -290297.936601081 745470.682773686 -754.407111516636
 -251216.852615765 759532.541565031 -641.299924449837
 -308664.588361018 -738055.294707109 -744.208791584688
 -353302.674913412 -717757.979381241 -838.411347701976
 -410617.272314488 -686580.294308921 -977.314527211584
 -472882.575921498 -645275.576502412 -1224.64661369089
 -536689.119492202 -593264.801933235 -1289.88596539064
 -600448.303709740 -528640.233118567 -1156.93579908034
 -662306.361465126 -448720.638541141 -268.533159854636
 -719570.986690844 -349593.316022576 1452.06924958300
 -766658.369282339 -228512.461657715 4123.06639224891
 -795267.252951990 -86653.2850248776 6419.07910789230
 -797306.930719872 65238.7581822627 6750.01162177855
 -772039.254134825 209603.232091358 4677.09009964602
 -726827.251193493 334241.832497906 2131.74364135889
 -670237.303990396 436785.895634153 194.202876163390
 -608292.867817805 519595.316669757 -702.749489524356
 -544105.234053880 586471.199295603 -1013.24821693088
 -479664.326701836 640250.987076730 -898.463659992439
 -416733.294666734 682885.645541856 -745.807677025294
 -358727.029407825 715062.660671833 -556.493628224103
 -313541.230443443 735997.054740319 -481.897900400707
 -371119.761954692 -708709.921846553 -607.423202392762
 -420015.884887776 -680871.670988166 -651.220179496770
 -480077.841054655 -639941.098085486 -810.869560108357
 -541410.186412858 -588960.181431592 -956.418559220448
 -600324.447022486 -528780.852242101 -1169.87574715212
 -654965.195589754 -459368.239839058 -1188.60979364941
 -704282.966647503 -379452.682381245 -1079.22373435924
 -746449.002225333 -287773.519150078 -537.357221615413
 -778691.614857299 -183410.305297262 169.887305949042
 -797065.727541598 -68450.1156477433 898.691489434337
 -798340.298483012 51496.1729021860 954.984022454335
 -782206.992213904 167785.577355652 470.492410765005
 -751538.381129099 274207.915156013 -284.527055005651
 -710264.121738183 368136.299856095 -736.274235595405
 -661361.407189768 450111.289797821 -957.014374437942
 -606795.783927680 521342.621276577 -864.782088618898
 -547780.729403932 583040.083081060 -730.762976692901
 -486180.258775036 635317.625278680 -520.564786996524
 -425771.864130239 677287.357006073 -394.657813312648
 -376505.910582509 705863.444443882 -311.599512063073
 -433828.147498561 -672155.419049137 -480.708693402504
 -484868.398800086 -636319.382527085 -528.455664923629
 -544063.003048123 -586510.934937589 -609.846613639370
 -600790.786552577 -528251.670051906 -777.097747437115
 -651710.073079976 -463975.401252426 -898.709486617855
 -696110.527886290 -394244.856867314 -1061.03701256012
 -733700.446100239 -318876.964512854 -1066.25296226112
 -764080.784535459 -237022.116238764 -1034.94800644809
 -786062.114661927 -148679.808223474 -816.406670151025
 -798116.425072344 -54860.8262064040 -679.542267259670
 -798936.146558860 41239.3619460391 -590.548866750616
 -788393.392039947 135776.758208152 -728.915791843271
 -767610.447385133 225329.820366983 -820.438040652560
 -738095.853822708 308567.163597105 -903.393250352850
 -701084.605415168 385330.666345152 -808.470073100509
 -657085.890931468 456330.633459383 -696.351460498701
 -606420.000725387 521780.157411298 -500.052060521488
 -549851.561703024 581087.886308139 -358.439234289849
 -490681.854675894 631847.503846766 -222.203591528254
 -439564.841263387 668418.075293018 -164.154416918414
 -494149.039600139 -629139.543273022 -402.184625877193
 -544902.688422076 -585731.066671767 -421.528112193214
 -599915.681381655 -529245.614080059 -505.182546514532
 -649305.337390207 -467335.236953891 -595.934426944044
 -691215.938257558 -402765.417535417 -738.333423459018
 -725854.557044778 -336354.680768505 -831.109166125910
 -753881.795238014 -267696.376801650 -942.685513510262
 -775543.693769356 -196293.335428387 -951.588662122185
 -790681.842762019 -121742.731399036 -964.820169064325
 -798750.457770833 -44686.6871542628 -897.887555158089
 -799294.555286036 33576.9731216256 -894.855344880429
 -792255.421858349 111043.312310587 -854.006522823897
 -778007.112517497 186290.662724750 -849.619773864894
 -757068.915687206 258546.099405087 -755.898546355242
 -729639.596092304 328063.443948096 -660.726247626371
 -695510.324177628 395303.860996180 -496.431105659210
 -654080.851059047 460627.953512588 -358.776641646374
 -605143.000873717 523260.839212454 -206.495114598978
 -550543.389788660 580432.567204550 -104.347241189998
 -500066.359128578 624446.663163616 -36.4926424587247
 -543921.626533551 -586642.247086038 -371.648950503843
 -591992.469302015 -538093.638722914 -390.199484074169
 -640917.893647149 -478773.490977827 -444.904267387281
 -682943.928696143 -416638.093986115 -537.491110071294
 -717223.760245960 -354386.340607507 -631.925206543159
 -744623.984618288 -292462.944961606 -739.834825099795
 -766101.997470394 -230406.309454734 -813.655530468703
 -782276.726280852 -167458.519515581 -876.219699638579
 -793313.368175608 -103213.931708697 -885.536620502724
 -799109.622532702 -37722.9950879497 -887.027190522191
 -799497.977748464 28324.1375141251 -852.531640039916
 -794450.193313769 94064.9454325952 -822.425972100820
 -784090.457815144 158750.082060999 -751.936742244294
 -768513.575959150 222230.593119087 -668.616794748784
 -747573.765130093 284838.852185158 -542.194669373284
 -720696.948048533 347268.972620663 -411.981211808121
 -686965.137169523 409974.181612216 -265.941822349900
 -645550.266184739 472509.084239826 -138.346141552674
 -597295.956516817 532200.657291762 -26.5871978453466
 -549872.413586213 581068.263704325 41.1401753664379
# End: Data Text
# End: Segment
