# OOMMF OVF 2.0
#
# Segment count: 1
#
# Begin: Segment
# Begin: Header
#
# Title: Oxs_TimeDriver::Magnetization
# Desc: Oxs vector field output
# Desc:  MIF source file: C:/Users/Victor H. González/Documents/GitHub/Intro-to-magnetism-in-python/vortex_dynamics/drive-2/vortex_dynamics.mif
# Desc:  Iteration: 1678, State id: 10587
# Desc:  Stage: 239, Stage iteration: 6
# Desc:  Stage simulation time: 1e-11 s
# Desc:  Total simulation time: 2.4e-09 s
# meshunit: m
# meshtype: rectangular
# xbase: -4.7499999999999995e-08
# ybase: -4.7499999999999995e-08
# zbase: 2.5000000000000001e-09
# xnodes: 20
# ynodes: 20
# znodes: 1
# xstepsize: 5.0000000000000001e-09
# ystepsize: 5.0000000000000001e-09
# zstepsize: 5.0000000000000001e-09
# xmin: -4.9999999999999998e-08
# ymin: -4.9999999999999998e-08
# zmin: 0
# xmax: 4.9999999999999998e-08
# ymax: 4.9999999999999998e-08
# zmax: 5.0000000000000001e-09
# valuedim: 3
# valuelabels: Magnetization_x Magnetization_y Magnetization_z
# valueunits: A/m A/m A/m
#
# End: Header
#
# Begin: Data Text
 566453.618580464 -564912.603983686 -2011.92879343372
 611239.264969763 -516123.212974937 -1841.19191064357
 656420.809796502 -457284.086186226 -1727.71147290923
 694796.028578470 -396554.590045127 -1713.41347268289
 725720.422473959 -336640.621345985 -1720.59989766963
 750104.760081772 -278099.999999482 -1799.69523945167
 769018.101401328 -220471.686020848 -1842.65575253937
 783197.278870352 -163089.863568762 -1928.41157390886
 793032.965869690 -105332.665597526 -1935.09742433629
 798616.469522538 -46988.1403088936 -1961.95761116879
 799909.373792823 11891.2152049708 -1895.44699809901
 796844.301932742 70963.0721178829 -1844.14557777171
 789363.601084011 130008.367578485 -1711.62006882513
 777353.283999048 188995.526761595 -1600.84977507395
 760494.818256311 248285.228530080 -1441.07566280154
 738177.668811051 308369.874619033 -1322.76079630010
 709499.898334769 369605.801413495 -1202.42440100948
 673687.482049756 431443.919332956 -1149.34767541675
 631430.002976850 491217.707839134 -1146.66731123556
 589567.102910134 540748.677793051 -1224.18594162723
 517765.031332273 -609849.167436457 -1834.47718709470
 566478.757390916 -564888.406554371 -1704.57188425890
 618393.964314823 -507529.355542232 -1690.60991460319
 664258.115344961 -445823.222830157 -1676.36025142975
 702448.767843493 -382834.777081652 -1806.10409450383
 733482.929440029 -319373.436350307 -1844.01026828607
 758142.195316525 -255374.884164671 -2019.95507881419
 777058.922375776 -190198.096040896 -2028.64945640951
 790400.841194322 -123538.937922870 -2154.31107255228
 798085.061874595 -55280.3859177349 -2076.76320526802
 799875.948501614 13929.0745906442 -2109.00206078407
 795643.722288883 83350.1795085444 -1953.14059527684
 785410.066863564 152077.023474729 -1898.89453039729
 769207.469198629 219811.337595094 -1686.77019623288
 746923.854312464 286534.974608790 -1569.77226175377
 718088.157755088 352629.487472772 -1357.29753327918
 682038.843751295 418116.558402735 -1248.68084304114
 638347.609552143 482194.018300120 -1121.64818365185
 588520.275327906 541888.055703770 -1104.81380958019
 541414.628515991 588955.779891987 -1135.50020387727
 459081.734055676 -655164.899506489 -1707.60390180829
 509349.313266651 -616895.827666119 -1677.76128374094
 566621.310374976 -564745.525468986 -1667.96034299610
 620289.552825279 -505210.310106945 -1847.48950231488
 667429.288608859 -441060.606613837 -1919.89596197827
 707441.547644782 -373525.941389522 -2197.21984033013
 740581.159689897 -302546.685524196 -2246.99592569791
 766838.701905904 -227930.398734080 -2477.61824969819
 785942.920693796 -149291.565959887 -2398.69642730628
 797160.925844424 -67292.2029225149 -2493.53818797841
 799819.299865903 16844.4806392835 -2313.23021111238
 793611.319698398 100874.257244349 -2336.12327784095
 778781.330707101 183016.848542172 -2114.73207971478
 755902.190363715 261930.758995306 -2038.65040677449
 725378.716158418 337376.141714821 -1748.46961262258
 687378.895015739 409277.065644651 -1593.18054370001
 641840.539918232 477534.247216894 -1328.17636925245
 589363.001320440 540971.156201725 -1208.64896920811
 532831.779430768 596732.023891786 -1089.26151807613
 482753.765516566 637924.436249475 -1102.50413400088
 398518.764353804 -693671.386242568 -1674.02695088095
 447949.252320093 -662826.346182156 -1643.82258270763
 507451.474977543 -618457.482697747 -1828.28834797595
 566894.857959738 -564470.041628074 -1947.33746651485
 622285.627514213 -502747.659571507 -2321.33250852580
 672162.975747907 -433809.779374465 -2451.39813101861
 715580.893400219 -357681.668391930 -2794.47614231864
 751745.232233301 -273626.935322545 -2721.41148878324
 779095.516254484 -181665.507604349 -2796.40823451424
 795719.201898137 -82612.3237209825 -2481.06832091337
 799737.435058277 20343.1247548959 -2488.42151096302
 790487.170334737 122982.275213077 -2322.39522843175
 768879.118065100 220950.152811668 -2435.52374935202
 736662.352420898 311967.308336456 -2230.93142314057
 695633.474986093 395081.662991702 -2132.61494057851
 647032.649340522 470473.802485171 -1775.34856590018
 592043.352015997 538035.509667590 -1568.33363755728
 532356.397749320 597155.792657129 -1274.78288540584
 472032.432398520 645897.853930602 -1159.76367464131
 421567.415718609 679911.544712438 -1097.89392983453
 338807.536759048 -724711.468987800 -1655.21986777207
 385212.423229463 -701147.865786099 -1749.08355557829
 443804.857832016 -665607.800688183 -1871.85142171400
 505726.432384597 -619867.338867455 -2292.98777338703
 567336.575202071 -564023.847506229 -2511.94790059309
 626346.098238335 -497676.340005391 -2970.82824329805
 681245.155437578 -419400.154724661 -2923.76636567574
 729744.690547973 -327817.690119661 -2872.04833757467
 768678.160338359 -221651.558017345 -2114.86342784791
 793416.625362411 -102409.288995701 -1547.94247915476
 799616.208164514 24755.7358840691 -1035.94471017260
 785711.549240962 150516.752522061 -1438.26269497661
 754184.065757014 266839.044843580 -1821.84115273130
 709603.838404821 369401.078957571 -2288.09661702005
 656074.476292228 457778.797116098 -2203.28591375211
 596716.708634932 532845.947081918 -2089.57274739286
 533767.154210883 595894.090656449 -1690.50475928042
 469839.836630954 647493.947467891 -1454.61577293835
 408995.466586111 687547.294345059 -1194.29929224831
 360582.642280539 714128.045677749 -1136.86519166130
 280431.358412103 -749236.511988227 -1703.62051466854
 322084.606334211 -732296.686832481 -1751.80384435330
 376646.128739751 -705785.531720882 -2115.87306571923
 437559.626805265 -669728.241822295 -2378.04450198806
 501853.526113782 -623004.399727776 -2925.10632242506
 568030.333445461 -563323.036180413 -2949.10059499426
 634131.532743594 -487718.647880356 -2778.43301497376
 697418.786707302 -391925.097717921 -1324.28339575663
 752196.443166550 -272396.373145236 852.516811209561
 789575.859608102 -128672.808040525 3642.85534881449
 799411.852607323 30322.2827775274 4609.67223210415
 778008.280839548 186257.945461464 3330.57015617270
 731901.880538279 322984.549240485 786.267416520588
 671231.537593536 435255.427762469 -967.234783481806
 604051.265995679 524517.073228222 -1976.85131382908
 535052.650409945 594739.069217532 -2025.05198856068
 467165.039750385 649425.313944519 -1894.00187003163
 402580.520690636 691322.405320470 -1502.08600816440
 344563.851316871 721993.123840819 -1296.72366362473
 300288.532027608 741502.164838310 -1156.31864348525
 222974.178649573 -768296.557528803 -1707.43812161453
 258274.162270958 -757159.744166009 -1891.80276443621
 306170.150598671 -739090.911607385 -2112.64330875714
 361999.848781248 -713406.610078354 -2667.99154156202
 424742.692384682 -677927.590318514 -2797.77603530572
 493854.860131282 -629364.881203490 -2687.64440154777
 569157.717721817 -562191.114249107 -802.132806580749
 648304.217975528 -468711.661098790 3319.59412470307
 724613.540263036 -338842.298339908 11005.1861955211
 782303.828882913 -166178.093685169 19635.6943930517
 798737.044926497 38369.9887830816 23385.4019181324
 764428.675540553 235232.849715434 17728.6893500929
 696245.571796556 393896.841123701 9347.85036556474
 615671.351456393 510823.410615504 2868.82606704821
 535131.943106477 594671.062999582 -360.968188789410
 459844.142255037 654630.058071590 -1688.75780250271
 391332.617897670 697750.457511051 -1755.33827951727
 330417.758876219 728574.996522507 -1605.94565478856
 278407.728375571 749991.645575635 -1291.64527097448
 240196.270989353 763088.684665096 -1187.74530227967
 165660.549338700 -782657.978999542 -1752.22748301345
 193330.634902362 -776285.935597245 -1847.10642891013
 231773.211620538 -765686.567462164 -2293.20367833249
 278640.554673392 -749902.107727256 -2504.02027244494
 334034.301885663 -726920.998864689 -2635.63527836397
 399865.040342375 -692897.434995636 -1045.98683508519
 478228.536150438 -641314.807672376 3575.56590669721
 571016.615700312 -560096.412447007 15232.6412074220
 674008.166980814 -429395.743826322 36500.4935172676
 765269.037467784 -224145.432265416 64203.7809453671
 794688.200990499 51395.3691960010 76349.0617603798
 736258.394756449 307766.302899096 56599.2840103089
 635121.535015827 485507.475036857 30052.0788378261
 532596.824124148 596817.744092181 12214.8790248943
 443090.150292543 666079.172496575 3107.19809628872
 367865.223765414 710404.834377408 -385.275523688054
 305041.066978129 739559.130318295 -1496.73634696824
 252566.288029173 759083.747286345 -1461.08072514479
 209900.008319727 771971.662338836 -1318.73166083374
 179494.739153281 779602.654891573 -1157.19588096146
 107930.400791930 -792684.117231618 -1708.47113565131
 126649.496529717 -789908.974078733 -1928.13346344384
 153381.766845884 -785155.709092055 -2132.15369725359
 186885.695139776 -777860.878012185 -2488.25445573852
 228718.015847093 -766606.302826839 -1686.91823565041
 281645.656839529 -748781.426914844 1448.68588746069
 351279.710128884 -718652.333999655 11890.6723366337
 445382.962075586 -663493.579827351 37553.7830406512
 571338.760581558 -552458.797487512 91440.1319759558
 711892.048661019 -321256.163658665 173217.171101869
 766796.145511993 75981.2973226295 215059.325966397
 664346.212850208 420733.888020226 147061.568545185
 521980.526867396 601911.167388208 72382.8442698995
 405957.703757261 688737.207636304 28972.4278837619
 320164.087300583 733081.289012265 9315.62682275293
 256311.076000674 757827.234905186 1585.67188797752
 207210.893792578 772698.565972261 -756.067518660098
 168648.644015338 782020.385708396 -1323.33226363826
 138484.172239230 787921.765761229 -1193.76669518617
 117592.035077238 791309.591349708 -1115.31356705733
 49456.0088530406 -798468.062938543 -1689.86848532738
 58352.3338155104 -797867.045473805 -1784.06423242443
 71171.3166578877 -796824.915121331 -2167.56247098240
 87904.5469690947 -795153.227211881 -2033.68549423868
 109423.902023769 -792480.648767104 -911.589580117214
 138562.685248755 -787894.557257105 4748.56834057815
 180120.283978958 -779157.666591003 21679.8037768623
 244734.543120983 -758598.895132631 68064.0852940530
 351516.099424269 -695964.717225737 179079.714715123
 513073.713715783 -474351.534902625 389545.871020882
 595515.519572259 121736.958235086 520135.923531775
 452585.717461734 580612.740546168 313137.372194882
 307419.574516813 726052.221526176 135430.339366062
 217233.111001761 768270.346510412 50699.6070721303
 161771.240264775 783301.550854906 16393.4819820995
 124949.864040518 790171.796781371 4007.87319599921
 98763.3717714587 793880.212412108 -68.8247040194821
 79132.1645657446 796076.091204169 -978.541890185445
 64354.7114259899 797406.575509070 -1106.54967173989
 54313.9483482422 798153.488355847 -1002.01807153660
 -9613.43232773691 -799940.694901265 -1570.52849729668
 -11200.3186295863 -799919.620974175 -1775.62471469663
 -13233.6538489903 -799888.285849530 -1897.51587760022
 -15714.5386401838 -799843.257536201 -1953.62463254630
 -18379.7823322144 -799788.819537729 -166.564898655633
 -21710.8668153048 -799681.459470512 6180.74762795432
 -25976.0207078775 -799129.722783314 26775.5954639085
 -32960.1604622704 -794867.632617522 84256.0053605550
 -46186.4671001881 -763667.307121326 233835.528290437
 -71033.6923237697 -570968.768022846 555831.701594399
 -85252.9687772572 155142.125358633 780168.476839374
 -60319.2156088510 670994.238776533 431425.919199384
 -39739.9088668100 780165.495210500 172518.230127178
 -29206.6109046962 797071.267580047 61841.4770020751
 -23395.2458082538 799407.411706685 20011.3113510967
 -19444.9367655278 799747.147129561 5137.61543062217
 -16400.8443488138 799831.716140046 488.017535885476
 -13773.6341744901 799881.009571064 -810.881744367640
 -11589.5686228094 799915.524636524 -913.971887640079
 -9945.01700844338 799937.686572514 -891.200155186633
 -69011.9575568521 -797016.411344094 -1479.78456286666
 -80957.9393341926 -795891.565103920 -1558.41432026584
 -97956.1827719317 -793977.973069138 -1887.99835133436
 -119139.561888948 -791077.049698972 -1692.99512118329
 -145747.157779787 -786611.410354841 -505.072947630519
 -180055.405118385 -779457.825902350 5054.57488163371
 -227641.846907945 -766633.600755296 21262.9191154839
 -298766.738108153 -739301.814511175 64585.3176867585
 -411652.180209266 -665824.762115981 164984.449819229
 -572034.814405478 -438883.448504992 346637.403833542
 -648624.232310201 110704.795136593 455006.652252214
 -512539.479830053 545404.381782111 282555.024638407
 -364532.525414514 700815.111834228 126389.148820995
 -267510.524356694 752371.076381144 48743.0280500250
 -205376.038452748 773015.158991956 16378.2416057541
 -162753.542520348 783257.239261176 4402.44727831777
 -131216.934280669 789165.379594319 346.132543994692
 -106811.699096009 792837.221597414 -633.234487804558
 -87739.9151405898 795173.595466116 -812.628212174356
 -74494.6830837005 796523.700339773 -732.795534416894
 -128387.390455028 -789629.650035308 -1301.44429985651
 -150218.228893929 -785768.598004176 -1481.24897395488
 -180689.830399424 -779325.734629704 -1607.64862478212
 -218262.199873776 -769648.181922047 -1813.33128472305
 -263568.976206609 -755334.764736285 -887.672338708178
 -319480.399434121 -733435.124715544 2278.64233880416
 -390358.668037536 -698192.400933218 12144.1989059762
 -483079.031774491 -636690.771087396 35489.5910367709
 -601926.831830343 -520429.808772527 82685.5686542487
 -728095.627937034 -294945.819740077 151273.659296091
 -775159.330513584 69199.7389864622 185308.954025267
 -685767.306946989 390876.450323105 130149.150229586
 -555263.860255737 572052.962004213 66614.2188733222
 -443620.990498467 665141.451869357 28058.2571497561
 -357812.951583588 715451.996835735 9916.24438987938
 -291600.082802452 744958.537741642 2483.69793567407
 -239146.169198345 763419.352181200 49.7291999310588
 -196644.573105834 775455.022947698 -647.497652926234
 -162660.829662274 783288.617088212 -629.947312648213
 -138638.499211475 787895.310850340 -587.942544465336
 -187752.438366393 -777655.244234903 -1158.87938466054
 -218366.158314813 -769619.860767894 -1220.98912179557
 -260349.378179494 -756449.500477825 -1534.44074473202
 -310123.683835537 -737442.055767784 -1585.90960031238
 -367592.906115889 -710544.362269512 -1471.26485972028
 -433531.460521557 -672346.937676211 261.027711476958
 -509816.960771969 -616493.136987723 4783.15338108059
 -597004.829461666 -532303.202190766 15444.5633445522
 -690667.883422947 -402262.772838284 34095.9879827688
 -770656.320149220 -206840.336716880 57497.0548890103
 -795730.950821775 47409.9409756618 67561.4638751929
 -745350.470202900 286022.786797185 51416.3592749237
 -655245.144186071 458065.560826989 28805.2600201809
 -560595.992461062 570582.498027181 12951.6864407378
 -474956.926420076 643735.913694229 4471.18170623664
 -400651.571028379 692443.080966669 947.762564596987
 -336489.124516880 725792.636399068 -343.556042691862
 -281407.151079794 748872.313555223 -522.792120689516
 -235425.481383539 764574.775191149 -505.822825864621
 -202101.363712155 774050.954485375 -398.303864751410
 -247354.266024217 -760798.891274876 -956.093374420214
 -285557.134569646 -747299.093850941 -1089.59897943664
 -336280.746754923 -725888.286557095 -1206.15138131090
 -394069.154926847 -696209.125447683 -1534.52879182440
 -456828.431775112 -656738.686811293 -1442.62513137189
 -524008.466384832 -604494.879345004 -1033.44215373159
 -594726.135581344 -535069.975325292 972.194359294517
 -667080.385137795 -441564.422914868 4961.87265766009
 -734828.462926598 -316047.120504154 11888.9736296555
 -784886.177537635 -153548.885341406 19401.7556105852
 -798895.083250640 35423.4469864841 22623.5576678238
 -769412.284243807 218366.881664228 17906.4750011743
 -709670.666197674 369127.804610835 10592.8939262799
 -637077.638230603 483849.366744341 4676.87583948361
 -562430.184728927 568920.167456332 1459.57776187314
 -490325.439938193 632124.165774178 -44.6510351537047
 -422646.732892327 679241.920064209 -391.411455913913
 -360465.763951886 714187.815764552 -443.657570453617
 -305969.026059643 739177.160122521 -284.684596049083
 -265057.184603721 754814.309617216 -216.534142501518
 -307732.417293923 -738444.391050852 -800.419873773633
 -351953.019606118 -718420.754318053 -831.718231539507
 -408670.252307171 -687740.868669989 -1059.45280349023
 -469909.238565443 -647444.163272634 -1167.45665608557
 -532558.812050344 -596974.920955087 -1433.68692309918
 -594732.612898348 -535062.250455273 -1227.71855217613
 -655156.735658850 -459095.926663008 -762.785863887678
 -711388.073174846 -365959.546126011 787.365115481344
 -759134.750368775 -252399.844328191 2957.93266346794
 -791127.198212751 -118690.386243321 5508.94376934261
 -799486.713650264 27922.4767791168 6428.84027029943
 -781282.432043408 171958.457779066 5296.24193021125
 -741486.168113929 300315.500299434 2977.04142120032
 -688132.779671816 408009.644573612 1186.37096040850
 -627490.873571020 496241.072630604 37.6763412108733
 -563440.753363710 567921.149755283 -291.735449410750
 -498221.969056316 625919.103251601 -381.751700791762
 -434092.047803047 671985.155911240 -210.402242438982
 -374556.519751135 706899.852508027 -109.708925194054
 -328027.667906150 729655.979957618 -0.374154986380844
 -369177.817800126 -709723.431926001 -623.714290791453
 -417729.035778291 -682277.045244519 -697.280537453858
 -477181.521096319 -642103.744726903 -759.560327262668
 -537855.875422918 -592207.785161483 -998.232026272522
 -595865.857807111 -533800.290711626 -1062.60810288846
 -649712.911019421 -466767.157533324 -1246.55642947862
 -698295.428694013 -390361.955664711 -1018.74170712076
 -740395.863797557 -303007.344790474 -716.850399953338
 -773573.835892397 -203920.347885296 110.186490531386
 -794471.248530476 -93887.3603268465 773.840605558531
 -799682.971129296 22485.3734568452 1246.46152286267
 -788009.260316429 137987.652070230 901.959922053126
 -761324.585086136 245732.972720859 426.920592927891
 -722978.197924129 342494.539287605 -126.033924346943
 -676060.830495154 427716.820248200 -274.129480267795
 -622572.685039387 502397.390803807 -336.981268593442
 -564048.334331311 567317.768978858 -159.809025345469
 -502317.886390744 622636.923901664 -44.7907231072258
 -441390.733225215 667213.762689763 124.500105986824
 -391371.123692370 697731.039010250 201.845111783055
 -431184.963393822 -673854.043739705 -505.053182285448
 -481963.181133980 -638522.693711158 -511.514477228326
 -540843.478906051 -589481.070932864 -631.139163582823
 -597121.040105984 -532396.456292391 -690.499857026869
 -647650.358907970 -469625.621812483 -887.661881282272
 -691628.763545297 -402055.755687518 -907.058621313311
 -729086.225418381 -329290.496478430 -1022.17130059481
 -759686.304824349 -250750.884332834 -843.960087196081
 -782619.798635019 -165848.485044593 -728.555349554549
 -796436.654176788 -75422.1573908886 -392.502468532636
 -799789.163803238 18362.9042122959 -311.788081176600
 -792148.424202713 111807.088092803 -221.552174104121
 -774144.552873650 201742.621889291 -354.639663810308
 -747064.253918957 286172.849874781 -317.034792032168
 -711993.237786370 364781.479853119 -318.280774365275
 -669581.323775747 437790.853684981 -138.854213337551
 -620097.274982743 505449.670398947 -15.8925264725878
 -564405.884548542 566962.048349295 182.259566794918
 -505669.641932328 619917.833920385 303.999159282332
 -454595.970036458 658287.421574967 417.878923306579
 -491058.602350594 -631554.654339381 -409.438330151493
 -541781.683139831 -588619.077696337 -434.955269180792
 -596691.105538845 -532878.512567793 -464.127532922063
 -645973.571501296 -471929.877718206 -579.170735183500
 -687720.973744092 -408704.624136580 -626.483721699730
 -722301.562455148 -343918.414392893 -759.681729599306
 -750381.828138477 -277356.346638419 -754.306930838436
 -772420.595749869 -208244.483451935 -811.402029595617
 -788316.815214762 -136220.837984691 -694.369067046765
 -797640.690385242 -61391.3481353467 -656.822562856843
 -799857.916533242 15068.3857286237 -507.060780273477
 -794737.394565485 91609.1665832535 -484.021884746516
 -782459.242258773 166605.521214050 -366.748989333042
 -763371.474636477 239298.749887933 -316.248957620009
 -737679.665352545 309562.091975292 -150.124077099039
 -705152.141513139 377836.547577697 -25.1793614672992
 -665289.294516559 444286.084419608 172.605772170044
 -617831.479400615 508216.645163321 323.481972661077
 -564580.460562580 566788.019078687 494.954344146276
 -515028.136914929 612164.718604716 612.765490777949
 -540644.196315276 -589664.062001767 -383.372126173057
 -588896.676513439 -541479.968826682 -384.383769474856
 -637938.903434421 -482735.714606977 -430.497132759915
 -680002.983156478 -421421.063632885 -479.609025537078
 -714310.105824102 -360223.201093123 -564.013994162189
 -741757.956915010 -299657.739189055 -610.489454790406
 -763406.986485357 -239184.696991554 -673.580287505382
 -779933.814380713 -178052.812852803 -664.093936663340
 -791597.383975947 -115642.331193670 -657.965448834637
 -798315.151204216 -51890.1128892288 -579.259987201744
 -799897.427119551 12799.7315782850 -522.454827049101
 -796225.329078697 77621.1951334239 -418.807330910349
 -787313.672011461 141905.136201136 -337.910588571860
 -773198.363896446 205339.348443743 -205.057448838628
 -753710.966437546 268178.621659373 -77.1794047231504
 -728335.324091317 330949.613426105 95.1520207806664
 -696203.544205394 394081.916746517 260.632384589855
 -656559.343257891 457088.205284136 448.743684745960
 -610215.817962147 517335.738680827 623.692514655064
 -564598.566297718 566769.663429946 779.454981676236
# End: Data Text
# End: Segment
