# OOMMF OVF 2.0
#
# Segment count: 1
#
# Begin: Segment
# Begin: Header
#
# Title: Oxs_TimeDriver::Magnetization
# Desc: Oxs vector field output
# Desc:  MIF source file: C:/Users/Victor H. González/Documents/GitHub/Intro-to-magnetism-in-python/vortex_dynamics/drive-2/vortex_dynamics.mif
# Desc:  Iteration: 1111, State id: 7023
# Desc:  Stage: 158, Stage iteration: 6
# Desc:  Stage simulation time: 1e-11 s
# Desc:  Total simulation time: 1.59e-09 s
# meshunit: m
# meshtype: rectangular
# xbase: -4.7499999999999995e-08
# ybase: -4.7499999999999995e-08
# zbase: 2.5000000000000001e-09
# xnodes: 20
# ynodes: 20
# znodes: 1
# xstepsize: 5.0000000000000001e-09
# ystepsize: 5.0000000000000001e-09
# zstepsize: 5.0000000000000001e-09
# xmin: -4.9999999999999998e-08
# ymin: -4.9999999999999998e-08
# zmin: 0
# xmax: 4.9999999999999998e-08
# ymax: 4.9999999999999998e-08
# zmax: 5.0000000000000001e-09
# valuedim: 3
# valuelabels: Magnetization_x Magnetization_y Magnetization_z
# valueunits: A/m A/m A/m
#
# End: Header
#
# Begin: Data Text
 501273.491063427 -623477.884394016 -463.496111964167
 553721.319893483 -577401.492762926 -464.812396631787
 607517.039054633 -520502.440146624 -507.010555344838
 654204.641498107 -460451.911655994 -569.293136648345
 692817.713862443 -400003.990733573 -650.196611218250
 724317.076497035 -339653.151764173 -713.576521528322
 749843.208058767 -278809.230901087 -759.007563295024
 770165.925926450 -216434.501923928 -743.585095390731
 785489.268201936 -151677.777764137 -679.170169758489
 795558.470593738 -84180.8479503827 -552.000821360034
 799870.018695315 -14414.6537644177 -413.460045182135
 798000.910490862 56519.6659134895 -272.434912612263
 789813.384059219 127258.773210375 -151.663821831585
 775393.549565224 196887.894778091 -13.5090490876629
 754783.823440214 265144.034516764 144.336912578673
 727692.144241250 332361.288177339 342.535650416554
 693473.716074935 398865.752320056 562.796033429548
 651539.894130833 464214.513392010 807.410801768823
 602934.974060793 525802.531426740 1055.93538793919
 555484.055068629 575704.634367174 1280.05182379461
 451775.168886212 -660226.446459394 -485.976784086719
 504268.828947741 -621057.722668529 -503.254861690034
 562210.449695257 -569138.914499264 -553.404062689709
 615138.426195057 -511472.666957560 -653.891114779850
 660893.241383153 -450798.815273489 -742.726119314587
 699659.931067846 -387911.409004017 -848.305755845863
 732205.807402931 -322294.721147295 -876.542074560273
 758937.871003050 -253007.061861168 -857.091440446303
 779707.846962736 -179039.594826439 -704.889437980904
 793693.694400340 -100249.986764025 -509.532092232990
 799807.198589781 -17560.3144360176 -283.621006425129
 797211.774779525 66733.5041003316 -159.948024935615
 785800.108760936 150060.596308443 -80.6650824041254
 766098.424776455 230419.622511202 -33.4189938672668
 738693.431878746 307135.161111824 80.6722654369729
 703847.006820727 380262.196657477 229.744933165623
 661387.685508698 450073.481987216 436.198749759986
 611411.782949626 515921.714794454 644.882864259842
 555985.041377902 575221.603255438 860.762601782830
 505033.156900372 620435.683465890 1035.91189709203
 392030.375856101 -697360.632960071 -576.197582127970
 442337.442418558 -666586.250187268 -598.411133470588
 501802.298834764 -623052.134687208 -700.246999188349
 559920.266649189 -571391.839705394 -812.719870176621
 613266.909807196 -513714.648214332 -978.542567875415
 661106.664274043 -450485.126443414 -1062.68796416760
 703343.620755454 -381190.969093507 -1093.72033065495
 739818.841777601 -304413.035646261 -886.047107481515
 769456.935275741 -218942.399375687 -500.511420696588
 790272.889831732 -124373.440241184 83.4240756551787
 799676.649186983 -22737.1816267358 526.608727607838
 795830.904328917 81564.2453167491 667.533466106308
 778813.964245774 182889.565004866 464.874297551198
 750339.639534235 277471.381520378 240.376387407534
 712500.644746697 363789.528987884 99.1681180265170
 666748.136251309 442093.771215172 142.331136562293
 614070.691425862 512754.441502775 262.013248426445
 555663.403301948 575532.779870966 448.915241768242
 495052.507344475 628428.703257487 616.355467584296
 443052.847198093 666110.799704306 759.675557381860
 330224.056264107 -728664.238543052 -707.200787903880
 376402.410758993 -705918.294619009 -765.830927623229
 433991.454083138 -672049.588197025 -876.805002922068
 493888.246550001 -629343.486158108 -1084.59675638363
 552685.620137480 -578391.805647682 -1234.68735490128
 608873.272481863 -518913.787646089 -1348.72088209213
 661879.233732968 -449349.097942803 -1126.11324806989
 710621.642321376 -367446.106295411 -490.339485358753
 752909.463362235 -270419.408097565 826.863807026205
 784407.735621044 -157157.142439678 2477.27230269940
 799413.852037613 -30383.8677715510 3783.35163933259
 793607.950770338 100858.291790018 3745.05691620986
 767664.633204992 225130.715465377 2678.03664856538
 726390.661868391 335193.443724927 1400.58353000495
 674889.881368897 429561.781885085 568.831774927491
 616846.440799516 509411.855485572 173.100308919800
 554517.441334830 576637.137263144 138.507903149724
 490224.739690877 632202.225749960 224.392089171044
 427913.107990679 675936.559558126 373.446759472958
 377577.033851879 705290.969181973 481.972998318127
 269026.991332115 -753408.061182861 -878.225183071864
 309435.275858269 -737732.289761874 -937.388511349457
 361845.508186185 -713488.988520914 -1136.42636607949
 419534.467371534 -681167.418226425 -1333.80434539093
 479744.021646443 -640190.015502024 -1554.91029166536
 541543.268945168 -588836.864566110 -1426.46000039511
 604223.896097858 -524321.449458210 -707.829335678321
 666816.116478505 -441989.170765410 1356.36670210067
 725905.720405571 -336206.673229594 5094.89532348761
 773995.729163312 -202056.527206003 10186.8076649786
 798769.046787287 -42085.4275181331 14029.4934030272
 789776.921281823 126774.746379929 13437.9422125956
 749516.434410701 279533.019121377 9295.47035694850
 690099.656320875 404644.940275096 4993.66154000763
 622376.778777440 502635.903745376 2072.07738445352
 552413.643658957 578652.525070371 649.252737927721
 483355.261898041 637469.747575258 108.267328947270
 417220.405905967 682588.551051236 53.5671145360425
 357275.197446637 715789.367120303 123.316596868102
 311186.181018039 736996.004675466 223.239355060488
 209091.251099835 -772191.520858002 -1050.63243431579
 242266.857241379 -762433.878608879 -1162.16685839320
 286766.838550629 -746835.294581659 -1350.21287313386
 337889.639549927 -725139.896924254 -1649.65860159331
 394564.233478280 -695928.279782554 -1701.48717085899
 456694.372872133 -656832.360424257 -1224.78015488806
 525244.599531741 -603421.285696669 928.779263840340
 600477.168334758 -528572.730627793 6167.55586512489
 680164.303856530 -420839.715882970 16445.4642653672
 753656.280998927 -266506.877586663 31245.7086633288
 796496.181569844 -60853.9118181753 43481.4231722327
 781891.041887046 164333.246868749 40509.0433158441
 717678.614712315 352451.178554292 26750.1910330213
 633628.886763684 488184.340801237 13801.5671238836
 548845.057867235 582009.739689990 5810.79690753561
 470456.553061670 647044.890333122 1881.90731170349
 399814.754565868 692927.138194605 378.397765516222
 337245.610160999 725441.515982253 -72.9143679276898
 283755.590361950 747985.801046467 -79.8198926486811
 244396.946314398 761754.640364028 -22.7171335826554
 150230.190862660 -785766.728414671 -1240.27008095614
 175099.043426204 -780601.392210392 -1338.45822738575
 209122.844174133 -772181.967652094 -1626.30792328286
 249779.978639927 -760004.344663582 -1832.58372746524
 296857.777007861 -742881.058379032 -1786.98953567422
 352071.248847568 -718363.206508487 -373.188636476564
 418065.851590799 -682057.934011451 4233.01142115635
 499186.921110590 -624938.764278475 16246.8056621120
 598340.855089188 -529406.003104373 41442.7919932059
 707885.703325088 -363356.573715301 82884.4458618322
 785026.091597942 -93920.4275102709 122118.748792918
 759598.110217924 225347.243312755 110586.305140831
 655421.149205720 453787.510704520 67082.1310219769
 541987.222651027 587548.078372294 32204.1314748626
 445271.758019285 664503.738483674 12955.4255675685
 366762.989587347 710961.576248689 4306.57252711874
 302827.203588079 740469.298502389 950.127573094523
 250063.207846790 759913.408759439 -57.1750119506331
 207360.138353859 772658.850355459 -272.009647770971
 176940.165095098 780187.235149254 -236.825426301296
 92193.3274213429 -794668.758115663 -1398.30393355790
 107789.366257943 -792703.622871726 -1555.25166827627
 129540.339144650 -789440.365173290 -1791.75035970052
 155895.908187361 -784660.541867937 -2073.60699119210
 187647.987660594 -777679.602145867 -1633.74819803653
 226471.694296795 -767274.372620699 780.257555064245
 276741.006008782 -750553.199697309 9182.04864826649
 345820.169954059 -720687.112939112 31913.8731029814
 446394.526060955 -658304.534448349 85831.6202081709
 587600.285865915 -508237.434052075 190841.857773542
 718984.994880473 -156071.493027490 314169.168125863
 674874.400868479 331929.677747611 272703.560817934
 519115.760876882 591117.801470742 145253.473602570
 389789.373649868 695813.570759837 62511.7503841405
 300592.549530508 741007.583559136 23492.1321850068
 238215.763891852 763673.035287097 7532.92830272386
 191914.342007681 776637.420016340 1789.73800400859
 156103.539783901 784622.000695392 -29.8612753828133
 128096.327193365 789677.885543698 -409.930243729370
 108666.848821094 792585.212839224 -443.120632900810
 34793.7558229134 -799241.497326959 -1556.76147632248
 40684.7299918779 -798963.032569167 -1680.87279911269
 48676.2909065095 -798515.188095642 -2028.07400428515
 58399.4046784630 -797862.607447118 -2183.84314649037
 69700.8796484886 -796956.039416791 -1690.74342489641
 83710.3881964083 -795606.446188736 1718.63054132277
 102043.377213384 -793356.363893357 13146.4457858144
 129676.437865494 -788039.646409608 46664.0884314370
 177253.999181336 -768323.275997251 135130.911841348
 265786.458381672 -672477.224785875 342245.439246772
 383089.010960170 -252612.590528568 655308.849923457
 340903.243504965 483253.618348176 538749.402710749
 221016.622394350 729087.025932699 244097.851776710
 149780.762564184 780266.152167019 93543.8664379796
 110871.304016447 791608.152707448 32620.3389435915
 86800.9677149033 795213.561230535 10049.0814907299
 70002.9034759890 796928.146968541 2263.19999547934
 57043.4923815452 797963.682392438 -39.4920038960183
 46977.7268900681 798619.268899247 -597.092181656489
 39863.0295564665 799005.971462057 -629.636844733310
 -21839.0711826832 -799700.133343889 -1658.82477781166
 -25879.1102099835 -799579.182213614 -1844.72907189138
 -31791.1316621372 -799365.255726589 -2124.11977195166
 -39898.6104460746 -799000.645620053 -2463.57123121563
 -50583.7557046462 -798396.903603619 -1915.19580340480
 -65618.5138738326 -797303.484445983 1168.04421359929
 -87258.7260577710 -795130.551794776 12382.2586513993
 -121384.206973238 -789457.543821247 44974.0013919521
 -179744.792113858 -768389.354526315 131413.886475444
 -284590.559826532 -669585.458547889 332661.279620628
 -419177.670048617 -248830.259006009 634329.238751940
 -369369.840855416 480487.289038547 522204.831209778
 -231519.195622921 728049.862866789 237365.244376186
 -147754.007041508 780978.640631358 90780.5941860609
 -101511.363466141 792912.310888574 31392.8388105840
 -73706.3459995132 796542.680515516 9334.48855359318
 -55668.1425769955 798058.565001994 1893.33805401406
 -43065.4950816561 798839.934073354 -350.518258509634
 -34257.3901904560 799265.792412642 -790.124250781034
 -28533.4733736454 799490.557849921 -829.943405869122
 -77614.7443680285 -796224.138484964 -1752.92628571542
 -91099.4218027442 -794793.895065735 -1886.72028772229
 -110527.107747105 -792324.729616137 -2298.10612786737
 -135034.511276346 -788516.921412399 -2597.19284453411
 -166119.893403138 -782558.414084770 -2551.38410659253
 -205900.119504688 -773049.138395094 -412.812982055127
 -259385.093530049 -756749.330067307 7058.66114008776
 -334121.130850111 -726331.761390278 28376.7918401453
 -442694.366621706 -661641.139201852 79074.0202410601
 -592365.144013179 -507359.587092530 178016.250784984
 -728466.047682943 -152830.854819712 293223.374218815
 -681715.000748984 332348.995359487 254575.731438315
 -519093.917504218 593553.900210072 135038.040401721
 -382356.049806985 700379.077236545 57210.1332395143
 -287564.453455054 746247.385960465 20531.0510269134
 -222092.168030186 768531.656264680 5844.84548303092
 -174808.201127584 780667.465146917 633.782001012716
 -139659.157752000 787714.859655188 -787.105081470518
 -113196.626178788 791950.384672567 -1054.53246173280
 -95449.2552118389 794284.859184800 -1001.07406702321
 -132418.729109425 -788962.679224154 -1780.72246220984
 -154760.545178845 -784885.538539910 -1965.97224311737
 -185994.289975856 -778075.148299890 -2277.65108836054
 -224665.319521256 -767800.487022803 -2811.82004386546
 -271103.881025808 -752657.953020464 -2948.12614886208
 -327740.346994494 -729781.735294912 -2209.92802451756
 -397320.759925431 -694358.241913458 1686.89630128264
 -484318.962756900 -636622.033307111 12146.1525595660
 -590645.917930522 -538426.353215508 35134.9084965311
 -706861.576743278 -367427.734474309 73099.7350411291
 -787080.375801429 -92620.5975146212 109205.800873011
 -759689.800071579 230547.409699409 98586.5079414862
 -650003.483629641 462655.611685754 58696.3052075017
 -529972.342545795 598676.661280061 26750.1658888697
 -427850.669836761 675908.975449760 9532.11554116169
 -345988.544426507 721309.961113825 1966.50034320424
 -281034.709810826 749012.092870372 -613.690061531987
 -229030.688420131 766513.721326861 -1287.93611936164
 -188309.038833044 777520.539795099 -1231.29627302906
 -159997.597565414 783836.361004424 -1152.36306708623
 -186553.091406858 -777942.591558361 -1807.85121231947
 -216642.560279311 -770105.404001986 -1915.15079387414
 -258046.118909308 -757236.304524604 -2319.40202746383
 -307187.468495769 -738666.652421199 -2726.86633704824
 -363974.576231945 -712398.682773308 -3259.54592410184
 -428495.591297499 -675560.278043634 -3136.71296336848
 -501975.840632461 -622909.908273307 -1871.25526684714
 -583934.780456614 -546821.900924344 2445.57612303011
 -671240.781750640 -435099.542292206 11144.5597446709
 -751126.498905919 -274255.046958133 24354.7091817831
 -796940.681949734 -60372.1232943784 35224.3691557751
 -780479.426428869 172577.713493669 32692.4720166583
 -710552.020036098 367016.139305909 20371.0655491061
 -619328.497902616 506308.743791475 9147.00202178754
 -527939.534526554 601060.987145048 2353.21399494826
 -445064.646995781 664768.481293240 -571.203640852267
 -372376.461201631 708048.989057464 -1549.27003885684
 -310254.868088324 737386.974955346 -1538.17869609944
 -258845.939284255 756965.570877507 -1379.93555721460
 -222059.565299290 768562.317849435 -1230.05731372765
 -240488.093422792 -762995.602591925 -1785.31432984968
 -277383.152551413 -750369.842013114 -1920.12443660588
 -326563.915275911 -730309.047698180 -2168.89138617850
 -383064.030983114 -702320.940584711 -2691.57633660972
 -444646.206125214 -665041.483823372 -3094.53913572874
 -510705.040588017 -615766.072770424 -3536.26114423484
 -579790.845705843 -551209.663685250 -3237.57558902078
 -650279.392747298 -465974.791164336 -2050.69928550207
 -717152.364725585 -354530.068653300 957.177719475335
 -771412.444595042 -211890.061666091 5044.01536884613
 -798853.781282742 -41966.7202903797 8451.65772697369
 -788131.223278199 137065.866267056 7881.82710233067
 -742327.793406683 298209.259334604 4548.05266814398
 -675184.434205887 429097.838159171 1012.46886460041
 -599691.487144889 529498.915279860 -1009.43717147631
 -523350.167729763 605062.824735791 -1892.10464166054
 -450601.704685671 661025.396298751 -1878.61184041364
 -383622.708083081 702019.075633385 -1683.83189497847
 -325425.177865083 730819.084259053 -1385.53030891142
 -282066.866454563 748623.174552583 -1274.90051307045
 -295078.361575812 -743589.649115817 -1787.24859812318
 -337458.042861317 -725340.417552797 -1829.74657920311
 -392416.679575949 -697140.351456560 -2116.59198007924
 -452502.279070357 -659724.079668240 -2413.74025660939
 -514849.430096833 -612308.283043936 -2937.82993926592
 -577156.040470536 -553967.822442063 -3249.09944005584
 -638123.275413187 -482478.911598356 -3575.64523012066
 -695196.889728499 -395841.570444652 -3276.52555791501
 -745140.940114607 -291132.455703921 -2621.56459484536
 -782119.941884566 -168186.493016771 -1303.86855259583
 -799431.075223448 -30162.7716057941 -403.950664338388
 -792091.936340310 112206.480556384 -264.775014009004
 -761028.905671237 246645.010576176 -1115.11914917345
 -712213.444578937 364346.977264959 -1813.70308856734
 -652069.299815530 463465.674977068 -2279.55173974257
 -586080.066346389 544523.121745207 -2173.87126256208
 -517754.586111475 609857.607197373 -1971.67543727846
 -450696.121014265 660961.758014760 -1600.29520144754
 -388859.485401197 699132.590140026 -1386.36849933327
 -341023.737010186 723672.034268664 -1263.96719144657
 -351063.127918253 -718854.314973056 -1775.96758717610
 -397690.756475870 -694146.053237856 -1821.80897982309
 -455742.969607508 -657491.129393381 -1939.18084410376
 -516362.824564207 -611035.423395176 -2268.20729929869
 -575400.755291219 -555794.584096715 -2520.13869749542
 -631115.179682695 -491614.594409147 -2953.05570718511
 -681857.300043406 -418402.688798816 -3132.47241618939
 -726560.480333985 -334811.210732089 -3364.75630045734
 -762964.788455496 -240571.742874014 -3157.23100500506
 -788451.449186142 -135408.523539642 -2973.89123645482
 -799678.921283266 -22518.8720272665 -2554.06692382749
 -794521.761133321 93428.0097673989 -2525.48540076560
 -773169.455930902 205433.643936655 -2451.60241897470
 -737769.560023610 309337.371126814 -2543.05464382835
 -691450.818371057 402356.000997033 -2326.85102036485
 -636683.335769927 484385.949837898 -2140.45614653684
 -576137.085512139 555034.167016650 -1769.78578204525
 -512392.755416185 614370.665616008 -1532.78424872092
 -450285.812542932 661242.001313079 -1304.88391325400
 -399886.732448823 692884.565575349 -1256.98005655135
 -408948.462465282 -687573.884663319 -1818.83926627866
 -458055.964639680 -655882.300141059 -1772.46147684623
 -516627.312321275 -610813.112934039 -1887.12255167779
 -574249.166519655 -556986.450091380 -1997.28968477424
 -627338.050549690 -496429.032973031 -2277.18114699695
 -674300.715719800 -430479.528949449 -2433.09170123919
 -714922.063980402 -358997.138560707 -2738.05391222430
 -748612.501703321 -282084.178868015 -2799.70102913764
 -774871.693178257 -198909.816303641 -2957.04060051916
 -792360.618006850 -110257.632448366 -2811.67542271202
 -799815.458003123 -16952.4433776592 -2801.39300728379
 -796201.053073647 77828.0964061866 -2582.72999071215
 -781377.774845928 171587.623900670 -2541.71220783112
 -756108.902110648 261331.385541375 -2288.02973218035
 -721232.291991237 346149.396954239 -2139.15340376160
 -677817.304636326 424923.987049781 -1818.45133663570
 -626587.394216896 497378.744356491 -1619.28096448230
 -569361.280356871 561983.853661665 -1371.36937701831
 -509941.875989307 616407.059841357 -1272.67051518474
 -459291.543613478 655018.885340743 -1240.08552981007
 -468120.919773658 -648736.627059832 -1895.56885879267
 -517717.695580148 -609889.392774549 -1821.06130371761
 -573601.442065431 -557654.181471170 -1788.72808911958
 -625485.439220670 -498762.856540419 -1891.62854884728
 -670440.414521088 -436469.750818466 -1951.20405313693
 -708328.919365877 -371840.743119268 -2145.63428376673
 -739424.720796289 -305362.390168372 -2212.00044973491
 -764290.282281342 -236335.807306625 -2398.03983143187
 -782852.391732169 -164731.465877744 -2382.62649064006
 -794913.275808340 -90037.7520135008 -2467.21624689358
 -799886.833892022 -13251.6785811775 -2333.66256726211
 -797353.625765142 64975.6939620707 -2314.01670889512
 -787141.202569437 142843.587492497 -2106.35462671208
 -769230.894651731 219726.662948481 -2006.06650494322
 -743763.235411857 294640.741762840 -1755.83117922124
 -710508.374872981 367661.869271333 -1612.17842154089
 -669416.273034909 438040.982216911 -1396.88743141584
 -620714.201088908 504690.191741517 -1300.35628563819
 -567123.980351832 564241.876579378 -1222.95710313763
 -518651.492534401 609096.901587535 -1262.44536688330
 -525834.746863601 -602904.292795956 -2057.35731001932
 -573469.666203452 -557789.348414031 -1893.34105557384
 -623832.163625987 -500829.428918947 -1820.64670921967
 -667890.008013284 -440363.236468150 -1776.84082361227
 -704328.953586827 -379364.397973337 -1838.12121812834
 -733684.542514773 -318909.917864368 -1859.12953564907
 -757026.180324601 -258664.778903583 -1973.43809259989
 -775039.925458369 -198265.382936420 -1987.93223223578
 -788206.900336985 -136841.388562318 -2077.65191913434
 -796537.199973666 -74326.1850009677 -2026.64286777877
 -799929.194002353 -10446.2330176841 -2039.80354104645
 -798163.762012112 54138.3267558113 -1910.65087148829
 -791056.239830100 119275.353935132 -1848.07183618458
 -778462.200983771 184374.106172592 -1670.51266380536
 -760039.037020988 249676.212614099 -1565.58579748065
 -735332.427865165 315094.067126789 -1396.20608094809
 -703569.516459468 380773.178191963 -1312.35611913026
 -664364.332923132 445666.379855941 -1229.22971918057
 -618879.811996748 506938.087527161 -1246.48191845730
 -575222.091825718 555983.642565150 -1316.91899241549
 -573909.122537559 -557335.762143146 -2273.17058064755
 -617288.506330135 -508871.976183301 -2052.26899149962
 -660791.964517563 -450943.902136187 -1891.23113598843
 -697533.241532411 -391719.360265329 -1822.01827846350
 -726954.036811235 -333967.991044370 -1791.45796436824
 -750078.459146794 -278170.790767654 -1821.06772797318
 -768011.076936867 -223954.465067674 -1839.36905646066
 -781623.091558695 -170475.133063644 -1889.90718319555
 -791380.982661157 -117100.663370470 -1890.74600573026
 -797494.638221356 -63235.1445456543 -1902.23617826168
 -799949.802812161 -8769.75175310577 -1845.11110065363
 -798651.011735982 46404.1551001026 -1793.27703942091
 -793453.268675820 102122.896990698 -1680.57665213790
 -784130.833843887 158544.402601816 -1583.60946040277
 -770333.658704242 215833.130965721 -1453.90676124442
 -751447.230896657 274454.379909466 -1361.07540438600
 -726688.559243910 334547.614078779 -1277.41074336889
 -695361.158049937 395564.499399878 -1259.63882775664
 -658157.926630041 454781.761321340 -1301.22384941192
 -621239.598886765 504042.995656599 -1421.02235543402
# End: Data Text
# End: Segment
