# OOMMF OVF 2.0
#
# Segment count: 1
#
# Begin: Segment
# Begin: Header
#
# Title: Oxs_TimeDriver::Magnetization
# Desc: Oxs vector field output
# Desc:  MIF source file: C:/Users/Victor H. González/Documents/GitHub/Intro-to-magnetism-in-python/vortex_dynamics/drive-2/vortex_dynamics.mif
# Desc:  Iteration: 1769, State id: 11159
# Desc:  Stage: 252, Stage iteration: 6
# Desc:  Stage simulation time: 1e-11 s
# Desc:  Total simulation time: 2.53e-09 s
# meshunit: m
# meshtype: rectangular
# xbase: -4.7499999999999995e-08
# ybase: -4.7499999999999995e-08
# zbase: 2.5000000000000001e-09
# xnodes: 20
# ynodes: 20
# znodes: 1
# xstepsize: 5.0000000000000001e-09
# ystepsize: 5.0000000000000001e-09
# zstepsize: 5.0000000000000001e-09
# xmin: -4.9999999999999998e-08
# ymin: -4.9999999999999998e-08
# zmin: 0
# xmax: 4.9999999999999998e-08
# ymax: 4.9999999999999998e-08
# zmax: 5.0000000000000001e-09
# valuedim: 3
# valuelabels: Magnetization_x Magnetization_y Magnetization_z
# valueunits: A/m A/m A/m
#
# End: Header
#
# Begin: Data Text
 577619.034799422 -553492.301027571 -1588.50262496838
 620933.880904305 -504419.466516587 -1455.10970031339
 664593.932200655 -445323.471521946 -1382.38696284553
 701592.768094704 -384403.035933712 -1376.12577789135
 731312.095181310 -324315.634684025 -1410.15638196912
 754604.231605817 -265650.673844878 -1474.15343731246
 772504.061262160 -207930.535892524 -1538.69324969683
 785695.196118329 -150600.451244409 -1600.90023414102
 794568.381869603 -93050.6317986006 -1632.92835156951
 799223.830646508 -35193.3013133159 -1643.18878780560
 799668.681827713 22965.2164665228 -1611.87362216950
 795881.645531192 81055.4177384346 -1557.42152609780
 787828.197254973 139012.886265260 -1465.96800100117
 775400.515447921 196855.747135910 -1362.15368522582
 758237.245136117 255097.507942288 -1241.58367637593
 735694.049789872 314249.869935518 -1133.29135189435
 706799.805803726 374743.848829732 -1040.32691689626
 670743.818932422 436006.593130731 -990.005295181713
 628164.299241307 495387.353296535 -991.641331928624
 585927.636746949 544690.453190523 -1055.79318009202
 529240.164921607 -599918.921489281 -1461.32572987943
 577116.224046943 -554017.130729965 -1372.15142631952
 627876.031977153 -495751.812088969 -1352.50845765244
 672532.491916293 -433241.423141368 -1384.41009240563
 709496.565484384 -369611.236990123 -1468.69210321807
 739346.501804780 -305555.759867491 -1558.16585611811
 762782.566627436 -241163.807473883 -1665.53713872158
 780462.640628201 -175713.008900839 -1733.51858060293
 792514.498174820 -109167.591260483 -1790.86601898172
 798930.072325449 -41322.5065870785 -1786.05246659763
 799543.928048305 26951.3680063364 -1769.43032465091
 794317.561570893 95166.9284016448 -1693.25682261384
 783344.390066633 162385.283993579 -1608.13353240852
 766625.920334578 228653.747280469 -1470.41686599031
 744041.740100607 293938.935762298 -1338.29405911306
 715003.953261617 358842.496979086 -1187.08974995797
 678832.935657642 423302.133287244 -1072.11048627563
 634998.685261740 486596.040911646 -981.165109691645
 585025.412755072 545659.558209361 -955.492293450751
 537764.326645647 592290.936905613 -987.444592921300
 470749.124315042 -646833.308367545 -1390.37509985358
 520825.453315157 -607238.840870066 -1355.47697875750
 577586.211203361 -553527.082513443 -1391.95973467449
 630414.504464574 -492519.321095680 -1506.95326295986
 676548.499394112 -426941.950572295 -1642.80525276609
 715321.915107415 -358205.616863683 -1814.88687503547
 747085.523998507 -286110.901012132 -1942.20336290017
 771723.021140991 -210806.432400300 -2055.89388814248
 789061.850552555 -131822.169956072 -2076.41774479401
 798415.948144884 -50275.5710313595 -2083.43595450536
 799324.281358449 32811.4107138589 -2025.97082036954
 791685.759277383 115020.486615911 -1986.50850332476
 775834.788380085 195132.960081347 -1873.24027301642
 752390.230056885 271856.365979502 -1748.71134476883
 721588.958019205 345408.407051606 -1551.77409103174
 683565.995529705 415614.782795434 -1371.88825548481
 638065.870525805 482566.630663819 -1179.76265323076
 585710.078570816 544924.401542807 -1049.02992371251
 529273.087853867 599890.879658710 -964.870940729409
 479297.796920967 640525.319983636 -967.639689331691
 410201.791632964 -686827.913734876 -1380.96187695692
 460050.563216760 -654485.719133569 -1386.62689970602
 519709.542670231 -608193.817580629 -1507.15433899059
 578999.395503278 -552047.871898431 -1687.34680859212
 633767.456733120 -488195.736450431 -1932.27784124096
 682683.857212111 -417058.949257448 -2141.01524235204
 724612.767986116 -339014.665752867 -2322.25665490100
 758852.458785006 -253253.660210656 -2351.46461939509
 783744.249926294 -160435.812437043 -2302.34557290811
 797635.134857593 -61429.1030575998 -2157.99403384052
 798996.933668099 39992.7722906722 -2116.16480508653
 787624.557592372 140153.883693241 -2108.35554954103
 764720.113206773 234943.778126349 -2137.65683309205
 731901.751647355 322979.409397472 -2031.51194772321
 690861.200723951 403369.946129431 -1867.59037325708
 642484.394604293 476666.785405371 -1605.73387137599
 587921.368627390 542537.168530934 -1372.97987380407
 528628.826679312 600458.355015423 -1152.17005115530
 468721.009231605 648305.144704173 -1027.06134583938
 418542.013407284 681778.269683883 -986.914296176209
 350371.022800224 -719192.716252938 -1408.28642186331
 397648.011822899 -694171.383774489 -1465.82465116540
 457158.665700283 -656508.385774967 -1641.27459152508
 519629.007142173 -608261.431660424 -1930.20487316125
 581431.875297996 -549483.435042582 -2220.13541489216
 639944.607029703 -480067.440447000 -2480.43469269883
 693683.850534359 -398492.679706865 -2509.92586892105
 739984.830101158 -304002.094763927 -2275.43387184410
 775721.754644460 -195583.363316274 -1705.09976664561
 796384.676931079 -75961.0371638330 -1169.26574226529
 798472.288483478 49406.4871426269 -1001.77451684225
 781478.243327517 171142.738373976 -1385.02981729290
 748323.192888742 282858.655669829 -1838.44974243998
 703446.417200995 380996.872151358 -2126.39083103633
 650307.111312302 465935.981648854 -2078.93760571040
 591762.794708611 538343.077658067 -1877.64115169016
 529605.406906597 599596.256326889 -1562.80967450213
 466481.707775621 649917.778108045 -1303.07706755209
 406236.255151013 689181.319293368 -1101.87927378750
 358261.832474757 715295.312581886 -1036.91379126830
 291712.066323181 -744917.401098186 -1461.47274506857
 334656.411987660 -726637.935034590 -1548.31657380691
 390695.748469261 -698107.136256521 -1805.11378080741
 453096.004994756 -659317.425974032 -2131.21204199247
 518446.360610877 -609267.837211524 -2464.48958766425
 585213.568556496 -545452.737647270 -2527.87865005990
 650819.399935213 -465220.141603361 -2080.50823573434
 712211.545831030 -364354.496991662 -717.291382454498
 762969.614954168 -240572.867372232 1436.01566523091
 794346.527305344 -94873.6573209397 3547.35175721581
 797620.656334324 61530.3865736019 3911.53638677785
 771631.207112559 211139.739522662 2300.13136973476
 723903.295838974 340534.874137801 133.301994480878
 663579.043073121 446834.500269573 -1335.27637670018
 597743.132153933 531694.654307349 -1985.58399315515
 530158.967574293 599105.599939355 -1987.26492063390
 463628.194951415 651955.389076063 -1751.42820906811
 400027.542411205 692802.955190154 -1424.98850529467
 342784.945539530 722839.570010239 -1198.80727136593
 298934.662493554 742049.106857695 -1091.13315572926
 233826.117585469 -765064.088567103 -1512.32268220895
 270640.381392632 -752828.726685310 -1640.80377408594
 320612.222341056 -732942.100080137 -1918.54519014968
 378622.214103940 -704726.915230909 -2279.02087702242
 443678.531496161 -665690.213814070 -2428.97541930375
 514675.767515275 -612458.181104286 -1957.22532995830
 591144.259304837 -539025.475511407 37.9557309798787
 669460.872793220 -437952.221832606 4471.15095067513
 741575.280165819 -299885.402395566 11612.4621436016
 790402.946391596 -122118.857435045 18712.7495105222
 795817.257822064 79235.0756106845 19917.2022517938
 754810.902597806 264703.559049164 13875.4151718452
 685663.668755868 412095.150335073 6551.36768604620
 607110.129585005 520975.191261778 1463.09433458373
 529092.658955174 600049.974319012 -993.257014570712
 456080.557590843 657257.361311657 -1812.72978240151
 389136.716205255 698977.418501790 -1784.52390429321
 329360.676239113 729053.630250267 -1532.69899886960
 277977.334968897 750151.323578070 -1262.13218785165
 240120.762137865 763112.514476633 -1144.48218951382
 175846.152702804 -780433.030572325 -1554.14649204871
 205224.536402635 -773227.025467644 -1690.19075361564
 245988.640756518 -761239.523722561 -1994.02643150260
 295807.973590871 -743298.498479901 -2232.69290048048
 354483.362860165 -717173.318693029 -1994.09382296678
 424087.687217365 -678343.283674862 -151.801952807123
 505986.233509047 -619637.022295075 5281.29724787707
 600992.261356596 -527734.432851536 17454.8037042337
 701423.575961135 -382805.256477788 38276.6599753819
 780495.792860931 -164478.143621027 61426.8475291338
 790084.159091159 107252.518840187 65298.6887743660
 721994.270806737 341652.259304572 44699.0674883761
 622629.554004436 501827.686123883 22392.2290044481
 524762.604386852 603784.257391965 8293.34448594224
 439272.926183903 668608.314280601 1489.42830787570
 366587.199186861 711064.532398407 -1027.69517213757
 305340.613441865 739435.190837807 -1645.70155303993
 253599.992041692 758738.894799276 -1527.59786190613
 211312.764846422 771586.161898255 -1307.73853669325
 180965.072699981 779262.649927390 -1168.28542446629
 117218.968537333 -791364.185625822 -1561.76945200443
 137590.187068905 -788077.412029344 -1712.62122918636
 166837.386530662 -782407.470488825 -1958.71868786417
 203485.989443563 -773685.570795289 -2022.28666181933
 249517.360016705 -760092.152058674 -1003.70768014466
 307682.150438565 -738459.185503204 3118.59703159899
 384107.894888156 -701594.644443030 15035.9560204375
 485755.276037647 -634168.365946224 43270.0292891654
 616190.974056007 -500686.775821308 98088.9188928695
 744516.463729855 -238223.375735983 170131.885571588
 762503.098698065 158060.100647665 183319.472667523
 647061.941482058 456004.915844942 115630.275493562
 511971.486066842 612297.028291300 54566.9002248900
 403326.030220940 690574.082309926 20869.8391949338
 321554.181112596 732507.550105133 5966.37645349528
 259592.039329905 756711.192930769 378.958880987886
 211038.208300442 771661.436687696 -1225.46579764404
 172535.174907167 781171.878903743 -1452.24989246166
 142062.151969438 787284.383629140 -1282.29150199236
 120873.526974168 790814.916829114 -1165.24563389204
 57543.2137547435 -797926.317865174 -1539.41836413122
 67979.3731760750 -797104.767702922 -1671.56449450176
 83006.9059301172 -795679.790471813 -1877.39251089379
 102841.736873092 -793360.454195854 -1663.39264019791
 128404.051616002 -789627.989122241 195.763531807860
 163439.229382916 -783094.027161869 7166.79301538335
 213635.276154085 -770450.069078264 27688.6229319397
 291801.732612287 -740453.581380991 81118.6949138864
 417496.079652140 -651671.628231020 202536.694042899
 586206.524001779 -365266.674373796 403660.956508872
 615144.107311188 250602.755508227 445865.435049642
 453191.283165657 611986.427481662 245133.174908862
 314768.316831622 728202.911667484 103157.288438511
 227698.790598095 765992.701167584 37529.2221895622
 172411.621735173 781117.499259390 11387.9340270925
 134539.774009797 788602.937556767 2110.94439313687
 107150.970550392 792791.364730844 -722.162250227954
 86225.4481991387 795338.635404048 -1275.58476144887
 70398.8091851162 796895.536210356 -1229.64764389601
 59521.9322269012 797781.855492969 -1118.31577416954
 -2944.09588941085 -799993.220796637 -1476.13644930792
 -3357.90762639014 -799991.335573523 -1608.55949959948
 -3588.03689170762 -799990.037631516 -1750.90878945249
 -3825.14962252672 -799989.602561612 -1415.63543292889
 -3366.14605121370 -799992.351250352 952.366365717679
 -2534.00440600057 -799939.949043572 9468.72461520919
 -381.109843695743 -799221.909957788 35273.1257292589
 3285.29080573625 -792873.982987498 106489.689481484
 10257.0908217469 -746635.354899587 287107.016462231
 21413.9161545792 -475701.683319947 642844.734505536
 24054.1623092550 335781.706288724 725721.739372214
 12855.2687863530 716695.473844425 355221.536277498
 4906.02640735889 788183.844016114 136902.004867979
 608.353861996812 798580.269315205 47635.9461544801
 -1831.02031356416 799866.099640969 14521.3639082645
 -2929.60211558188 799988.633177056 3099.06743226431
 -3465.98999466280 799992.416474008 -347.127403709286
 -3373.04735715152 799992.082347272 -1136.10439744298
 -3163.51451257003 799992.948083784 -1129.24405904322
 -2806.58798553910 799994.392096885 -1046.74610815478
 -63940.6969490866 -797439.442616555 -1386.59044481308
 -75067.5855077324 -796468.828166857 -1504.44825492519
 -91036.8849144008 -794801.554937750 -1665.48900213858
 -110918.861566775 -792272.131427068 -1369.63963958991
 -136268.100222000 -788308.684477669 650.260696642103
 -169298.878613443 -781840.681383899 7939.68723502190
 -216379.794607615 -769628.474294852 29185.5450548172
 -288954.945585563 -741202.661238228 84401.7440282740
 -407635.006587229 -655392.064101428 210463.639894161
 -570093.949848996 -370567.827037209 421512.009212659
 -597882.916907389 255232.725398722 466253.443478815
 -441025.978407196 616833.704431744 254975.032987518
 -309808.517003339 729738.189668359 107242.050202977
 -228743.824069989 765589.675189359 39353.6808099352
 -177115.942543727 780050.196198729 12313.9882723162
 -141473.649851991 787386.963059584 2641.36354228554
 -114656.469922637 791740.961393787 -379.415500528699
 -93751.4689253592 794487.000172931 -1033.74588517534
 -77176.3954578719 796268.000728378 -1036.82214547027
 -65634.2942919181 797302.482665241 -943.688849861052
 -124915.362391306 -790186.403500513 -1264.89587451137
 -146382.176765948 -786492.422158880 -1388.60070630119
 -176412.794789934 -780305.122560768 -1562.54274508602
 -213803.154200213 -770899.483821058 -1482.26126807120
 -259225.496667496 -756836.899549407 -222.166446980424
 -316224.606122019 -734835.383900976 4353.96946229064
 -389725.009029923 -698441.878409988 17127.7499909466
 -487904.261266047 -632244.529554065 47077.4541303113
 -614618.658422141 -501183.369281005 105162.422354696
 -741234.396770858 -239715.716694655 181955.885349474
 -758967.369831999 159665.459723828 196151.656892003
 -644568.929015560 457372.184560569 123861.134089862
 -512816.553948647 611171.623146571 59062.9245518705
 -407771.330814241 687879.236004549 23338.7754558770
 -329054.580241737 729155.876906086 7402.05344819870
 -268597.651256657 753560.643705441 1287.63257499401
 -220744.707822867 768941.741603732 -609.907875278586
 -181747.533464991 779080.768726166 -994.927353988144
 -150523.214564375 785711.096385621 -913.725184218569
 -128340.329752938 789637.942388946 -824.438390085403
 -185806.658710767 -778122.496892306 -1124.90391785762
 -216354.867097657 -770187.672163553 -1233.34116997385
 -258493.575312700 -757085.852956633 -1443.18224235109
 -308670.227003509 -738051.735138675 -1525.52299012774
 -367196.677622510 -710750.002132470 -1017.06031525307
 -434953.057776703 -671427.052721125 1245.15256856091
 -514349.161751227 -612691.065865059 7389.01989076764
 -605728.116160063 -522173.364560927 20698.4694193100
 -703046.481995862 -379284.852747379 43227.8224022418
 -780143.180114593 -163467.790103153 68226.8284436606
 -789503.192548673 106938.432150953 72449.1593087852
 -722892.168806891 338981.427444107 50184.7001149265
 -626401.442415033 496931.920894144 26074.8717508369
 -532085.403504253 597303.038451503 10686.6100479933
 -449313.792565102 661896.954973451 3088.17221637648
 -378571.836969111 704757.659441185 75.5831705650057
 -317749.648328811 734189.664537471 -835.148653475306
 -265712.316727432 754583.425095594 -905.157634472684
 -222220.470779276 768516.395595071 -782.347874248157
 -190726.879721984 776931.656150008 -677.512747726353
 -246731.093024603 -761001.203972915 -967.102196871277
 -285135.613905653 -747460.061740265 -1066.67046722740
 -336255.677606794 -725899.809702504 -1259.18666755440
 -394847.821490752 -695767.976042393 -1456.49506628832
 -458781.362489884 -655376.047690646 -1377.51417873806
 -527774.764953661 -601210.025817555 -549.849580547153
 -600726.458216777 -528321.853508760 1934.29661530896
 -675394.208180760 -428710.553580739 7065.74867794559
 -743938.925010669 -293817.272064992 15042.8218847770
 -790681.874728764 -119572.323888869 22904.8539664101
 -795849.772734308 77692.2560011833 24229.1682935838
 -756525.495214872 259538.964793056 17569.8845767837
 -690672.256368327 403588.524291089 9388.14910531340
 -615773.381094055 510695.950320332 3576.23578760931
 -541307.478294146 589055.085722377 565.621282181879
 -470549.784557939 646979.527246074 -625.761075144886
 -404836.621413952 690004.753545633 -866.052288360981
 -344717.687355568 721920.431706353 -778.658552082638
 -292251.909428544 744706.955380402 -609.953623449404
 -252904.837739002 758972.249723357 -516.912057541417
 -308220.087564073 -738240.964031983 -810.337659291995
 -352725.217244922 -718041.879954280 -883.035246631248
 -409996.132660293 -686951.273254957 -1058.00614221094
 -471983.918012947 -645933.122695384 -1257.83231709366
 -535721.283873582 -594138.680018073 -1391.01086330859
 -599146.495669175 -530115.098437956 -1207.94679687598
 -660938.913169718 -450732.269915781 -417.030695593023
 -718062.310938174 -352682.189699771 1338.16243584828
 -765444.039776720 -232550.941482694 3934.66463716704
 -794680.583394749 -91881.6115244159 6367.09031324617
 -797743.443359457 59658.6767704144 6800.06345553518
 -773498.791595988 204145.683906757 4915.19498995062
 -728927.364933494 329635.205047281 2351.22192702825
 -672748.392297488 432908.061409079 459.378035411619
 -610833.276985790 516606.649740801 -526.469739505301
 -546680.219440940 584071.983627933 -809.699287662979
 -482025.514859311 638475.384384750 -765.871637004457
 -418977.298142132 681511.320677716 -586.028697761840
 -360710.602966886 714064.194375210 -432.687588905215
 -315370.315851788 735215.238975628 -340.965619595308
 -370519.284285686 -709023.991694711 -662.701835502240
 -419380.354399823 -681263.241173189 -717.335124983024
 -479283.941705216 -640535.861402948 -844.677627422623
 -540594.481273531 -589708.869467947 -1027.66114974810
 -599305.717650268 -529935.131950528 -1188.57741654842
 -653944.492519043 -460819.930349532 -1261.94162502436
 -703132.032400897 -381581.121175444 -1092.23361703170
 -745424.849495695 -290415.948058844 -608.988836884837
 -777856.765722428 -186919.290743035 175.407996652159
 -796713.671569058 -72432.9939498502 887.086473873807
 -798615.055802910 47040.9509948814 1068.44485713507
 -783108.748274721 163524.766940442 582.213599210625
 -752998.229757233 270173.384488167 -91.0861278834185
 -712034.058829054 364701.448573491 -593.696741065426
 -663402.769482889 447097.498280792 -769.722996488644
 -608882.035963692 518904.738764601 -733.735886086847
 -549952.483754467 580992.207954279 -565.604724880448
 -488260.897934994 633720.080823112 -393.330981085118
 -427802.896693877 676006.377291872 -243.805348845879
 -378408.111362349 704845.566974959 -167.245119571353
 -433149.444606262 -672592.940281285 -543.434507027575
 -484129.937835391 -636881.365026252 -574.607516173867
 -543325.832733956 -587193.826397044 -670.615500987316
 -599955.813704010 -529199.754059255 -801.190603705995
 -650901.918258587 -465108.358974955 -952.480401562329
 -695222.999430973 -395807.845796401 -1063.14073063598
 -732891.306575535 -320732.148862789 -1105.18408585250
 -763321.061333830 -239457.580969488 -1012.04764574625
 -785531.136578981 -151460.073566657 -824.366495148789
 -797882.765567261 -58161.1546519115 -610.328023531334
 -799105.000995611 37827.3678322121 -536.308391232331
 -788996.178381293 132229.620322549 -598.338590049240
 -768568.939207281 222038.895051177 -717.474910222242
 -739394.771895955 305441.993564053 -748.238294988304
 -702582.676741158 382592.610169732 -690.642267084020
 -658806.089257084 453843.855058158 -540.355194496113
 -608234.717210042 519663.727111721 -373.503380236290
 -551792.712032661 579244.992713551 -203.381215350577
 -492637.274276400 630324.130907813 -77.3875266000410
 -441526.546991846 667123.907757309 0.275970392847972
 -493405.834599997 -629722.531087505 -464.998308654770
 -544183.587472006 -586399.172979490 -482.757774218517
 -599186.222947826 -530071.290686906 -544.994528086180
 -648618.542012698 -468287.915008422 -644.681617341120
 -690508.699149558 -403976.692800964 -753.705765002350
 -725205.671456216 -337751.373804663 -862.311313501687
 -753253.441664954 -269459.432116392 -931.162398724923
 -775033.882076037 -198296.661035268 -957.003872541936
 -790308.317847737 -124144.739186093 -920.039725674258
 -798601.599042629 -47273.0101344571 -865.170147522221
 -799408.781678380 30739.9883530122 -808.017044656476
 -792645.073650180 108227.447436807 -778.998980716972
 -778680.617834603 183455.616417158 -729.529794958467
 -757969.411459123 255894.400458807 -653.533578824079
 -730779.484233868 325516.621480661 -523.987306397085
 -696827.551000240 392977.382633537 -375.373815917565
 -655610.249137334 458448.641906243 -209.667367807883
 -606834.473976585 521298.299792608 -61.8619345585530
 -552411.506135498 578654.926235127 65.0609685847611
 -502036.526959718 622863.793003096 144.789574326974
 -543162.535817587 -587345.096846868 -443.727566785083
 -591290.160666797 -538865.236807872 -449.954030345370
 -640276.267087508 -479631.164724852 -497.623521924357
 -682335.552457169 -417633.650198080 -572.778488546616
 -716662.688172854 -355519.551228360 -663.381673772406
 -744093.885878979 -293808.998051013 -749.440979011545
 -765637.381983907 -231945.525948808 -819.939729157006
 -781888.576855132 -169261.691930075 -856.170791392391
 -793050.042218731 -105218.300822534 -860.063305675867
 -799001.311985112 -39952.6181349691 -831.715234068194
 -799577.434150128 25986.5810734312 -790.191123249896
 -794733.970716964 91637.2192538857 -732.008103950872
 -784572.822300170 156349.140871368 -657.766471836803
 -769196.209342144 219856.513157919 -552.409013154444
 -748438.914934189 282557.977390052 -424.293974885802
 -721759.677294159 345054.912416624 -275.044337608424
 -688224.418521743 407856.757513437 -122.886265478640
 -647039.201500112 470468.140308290 26.0184078064063
 -599022.836231240 530256.181098216 155.179311057253
 -551830.319842732 579209.147380019 248.381924810190
# End: Data Text
# End: Segment
