# OOMMF OVF 2.0
#
# Segment count: 1
#
# Begin: Segment
# Begin: Header
#
# Title: Oxs_TimeDriver::Magnetization
# Desc: Oxs vector field output
# Desc:  MIF source file: C:/Users/Victor H. González/Documents/GitHub/Intro-to-magnetism-in-python/vortex_dynamics/drive-2/vortex_dynamics.mif
# Desc:  Iteration: 2063, State id: 13007
# Desc:  Stage: 294, Stage iteration: 6
# Desc:  Stage simulation time: 1e-11 s
# Desc:  Total simulation time: 2.95e-09 s
# meshunit: m
# meshtype: rectangular
# xbase: -4.7499999999999995e-08
# ybase: -4.7499999999999995e-08
# zbase: 2.5000000000000001e-09
# xnodes: 20
# ynodes: 20
# znodes: 1
# xstepsize: 5.0000000000000001e-09
# ystepsize: 5.0000000000000001e-09
# zstepsize: 5.0000000000000001e-09
# xmin: -4.9999999999999998e-08
# ymin: -4.9999999999999998e-08
# zmin: 0
# xmax: 4.9999999999999998e-08
# ymax: 4.9999999999999998e-08
# zmax: 5.0000000000000001e-09
# valuedim: 3
# valuelabels: Magnetization_x Magnetization_y Magnetization_z
# valueunits: A/m A/m A/m
#
# End: Header
#
# Begin: Data Text
 578988.488845097 -552061.888519902 -32.0735156030871
 622450.761105197 -502548.544887645 -100.154241149561
 666425.120288565 -442580.516801885 -212.592917624231
 703815.911793422 -380319.645293581 -360.152966982086
 733914.066183854 -318386.356652374 -520.917564125593
 757474.096736115 -257356.766488818 -698.223621954694
 775419.814045562 -196782.530213129 -864.747631237144
 788315.616219747 -136225.648316908 -1030.51672373871
 796449.896347830 -75274.1856224250 -1166.01304037763
 799874.023292984 -14137.8482899028 -1291.55209964162
 798622.925196083 46899.1238566384 -1376.78347305562
 792778.509029639 107238.760626929 -1443.55115687607
 782420.819407746 166779.881551321 -1460.29690063817
 767533.888449379 225587.237717123 -1458.85603648606
 747760.826032123 284344.365997212 -1424.28136255667
 722414.264006151 343679.610373232 -1398.77594859802
 690412.589140096 404139.275149180 -1379.50671051247
 650872.171289555 465148.837208522 -1405.66154561173
 604458.696320223 524049.126323317 -1482.44481339649
 558564.082090218 572715.937593247 -1618.95812202688
 530210.232112506 -599063.522050612 -79.4450655409703
 578382.613715204 -552696.600411036 -141.584086456463
 629641.002065386 -493510.019088964 -263.774347954668
 674910.842289479 -429529.028216113 -410.949910704393
 712500.714710569 -363788.910750818 -599.959716925086
 742858.810872620 -296917.806229510 -776.822227001383
 766517.626222148 -229019.165989104 -974.833533747190
 783941.736184105 -159480.686604193 -1124.66390830794
 795079.819460121 -88580.0701537621 -1285.24659706284
 799828.172529943 -16521.5658187449 -1390.06845490162
 798085.569117301 55291.3372581417 -1514.06437147430
 790000.342067536 126083.319755617 -1567.16705500266
 775929.424721299 194758.623948514 -1614.38822932628
 756031.215852287 261561.317771791 -1574.07191592597
 730297.885271803 326592.464219240 -1536.58150997259
 698097.415865701 390714.590411583 -1451.48239402555
 658766.116928370 453900.015571668 -1406.78753047830
 611766.628876215 515499.480376115 -1370.22822400175
 558871.063881940 572416.944516175 -1405.55548969911
 509467.402621175 616798.789779740 -1489.49410249603
 470824.397330358 -646779.995752387 -154.832322764499
 521337.206381811 -606801.009898413 -227.218562262022
 578832.363085553 -552225.472815229 -350.169662288346
 632611.056409395 -489696.802704867 -541.044564118435
 679796.808199018 -421753.201491899 -732.525603208713
 719545.667147849 -349647.119344001 -961.677284499363
 751943.416779167 -273093.086376289 -1124.33800321257
 776525.971172939 -192368.795271155 -1289.45719096998
 792758.600189786 -107386.789282178 -1370.88029991517
 799746.763668849 -20070.3901417916 -1514.41102667751
 797127.351152094 67714.9709888205 -1633.63068944697
 785263.966278380 152830.704422340 -1810.81487731473
 764993.647365428 234053.937941454 -1863.76625055405
 737378.838080080 310272.288831341 -1885.71870457676
 702782.156146683 382222.580352209 -1772.02446899864
 661467.381631067 449953.451916706 -1671.57003459442
 613135.409982963 513870.272153372 -1520.66500067563
 558583.463085670 572697.513646813 -1439.66314751187
 500700.089145455 623937.091089165 -1388.19772506397
 450215.265642797 661289.773240707 -1431.91809834515
 408834.651369053 -687643.922978966 -251.057848499491
 459161.811577634 -655110.926496929 -323.686702074377
 519723.511710115 -608183.551967001 -488.356948961287
 580310.880847897 -550671.244182236 -680.000239943172
 636687.534629160 -484384.274923777 -925.988342186882
 687309.216417451 -409395.716752351 -1090.01488945086
 730648.149522411 -325809.505876390 -1203.11265447090
 765383.573722622 -232780.406683011 -1125.76199910481
 789112.790617006 -131529.108752326 -1047.49007698439
 799633.568108244 -24189.0022642036 -1024.16987946462
 795619.727440648 83591.0945274051 -1333.50027381532
 777834.432414521 187004.429247273 -1714.40726851651
 748707.101171810 281839.184288736 -2085.87016953284
 710534.126849124 367609.191268344 -2176.48289361488
 665376.919060218 444149.674982435 -2149.83602395065
 614027.905246579 512802.075651086 -1939.79030737240
 557703.529010677 573553.557237950 -1758.04116277866
 497703.867997263 626329.351376240 -1550.28551645167
 438152.388475969 669343.236759063 -1454.60568728299
 388921.344398305 699098.078900949 -1436.64484764072
 346974.023392850 -720839.029605216 -347.114374780742
 394607.823722337 -695905.501369819 -445.668423353412
 454987.729669519 -658016.561982563 -608.281863921218
 518959.684547186 -608835.059877675 -845.977797733138
 582914.638118663 -547913.787170541 -1003.24245504094
 644091.212778086 -474494.929240307 -1035.25228291802
 700513.067953003 -386369.001244767 -660.684640016497
 748526.738367187 -282325.547547241 84.5667271167987
 783471.343683754 -161775.976525284 1089.51625213873
 799447.216514530 -29695.4300067205 1526.25158018959
 793113.498589642 104738.333818996 927.245231158625
 766348.299964350 229586.779571735 -440.213164355871
 724520.744894129 339215.482046213 -1595.91923720218
 673379.028962141 431920.592377737 -2298.96369475263
 616370.218511708 509982.288058442 -2412.38440284952
 556154.159226609 575054.149893503 -2296.92516282046
 493951.040039288 629292.002007683 -1986.51787551733
 432166.602806041 673222.831000890 -1745.63404901147
 374056.598442867 707162.843529687 -1540.74409288878
 328334.922025220 729516.232572136 -1498.46336285248
 285673.488014654 -747255.284855740 -444.410518735737
 328622.988907958 -729387.852932865 -539.587978353741
 385178.458732858 -701168.320145406 -736.038483300951
 448904.359838370 -662181.313156040 -885.564816759460
 516677.117141557 -610773.268652556 -878.021504491468
 587054.151129161 -543477.100508122 -254.686679223421
 657147.968193755 -456239.705554611 1370.75682152648
 722564.555901063 -343337.391236368 4460.75492530226
 774026.440305492 -202026.217916518 8275.08201506088
 799091.844653817 -36603.8224126544 10601.1316633162
 788775.921972203 133248.282292964 8800.01039063562
 747581.205006443 284782.746979722 4596.62308644150
 688423.657446789 407519.765167731 713.347897501262
 621665.865385947 503516.870355187 -1520.88186900701
 553677.780259023 577438.189320637 -2460.31736670511
 486754.172853534 634873.322120445 -2498.01309464396
 422818.876448265 679131.093154366 -2270.68931874700
 362754.874880682 713025.430585164 -1906.85320388310
 309457.665349517 737721.576960099 -1681.73836572371
 268908.052818824 753449.381644545 -1577.47540170351
 224540.357256517 -767842.015576339 -516.796654145690
 260748.118754118 -756313.441361486 -630.065183159161
 310410.392247148 -737322.728748643 -762.925701328418
 368953.818364335 -709839.740627924 -789.011824484434
 435931.476660646 -670793.347301491 -181.307832493633
 510910.536253371 -615602.966568265 1847.02399659742
 593748.667753721 -536111.534064149 6851.46583341537
 679884.342184151 -421303.962537737 16132.3402774231
 756637.808007859 -258201.458565869 28831.1339964329
 797724.262526212 -47230.1790330856 37487.4801168923
 779851.504820385 175508.657007927 32067.7680023755
 715101.585839364 358159.659606795 18745.1369792752
 632294.571517419 490048.096970358 7512.48862456932
 549661.404286428 581267.021529009 995.148564830632
 473279.249424656 644983.498664616 -1743.13349621122
 404914.775690808 689954.727790538 -2549.12274064918
 343676.494452363 722413.080476695 -2410.04504284712
 289903.396132503 745621.607197006 -2107.08134514673
 243968.076732625 761890.006331351 -1787.67664792345
 210316.343205049 771857.642706290 -1677.84884467925
 162800.520945438 -783259.639704888 -572.004600112087
 190667.431302293 -776946.267253532 -654.554343671404
 229786.012845498 -766288.358582295 -734.712066697950
 278411.619271334 -749991.214692550 -384.887915672851
 337169.165362726 -725476.045710527 1208.73025126434
 409294.208371842 -687342.857451427 6168.24965248018
 497926.081299554 -625889.845537535 18207.6581325226
 604963.050519334 -521725.389253419 42688.7071098632
 718114.312824887 -343268.796444777 80488.3041403939
 789570.550808481 -65072.9305626512 111102.920771602
 756514.120830164 242914.581777090 93160.5653945131
 652721.105058047 459536.706762145 52736.8386425064
 542346.493296020 587668.644108327 22491.0191274366
 447907.718862741 662823.028938744 6656.40230490467
 371325.366641365 708602.476497756 -48.8866200677509
 308469.602418347 738134.061439408 -2147.49315057980
 256575.286856727 757735.363128892 -2498.32710321681
 212915.105219428 771143.524892578 -2195.90201293530
 177397.617543197 780081.033666663 -1914.73328397715
 151819.448818571 785460.231475474 -1754.91621450175
 100094.979864206 -793713.202156557 -589.684972468153
 117852.032035035 -791271.417757561 -664.819638319832
 143600.965309144 -787005.984081222 -586.329796282669
 176402.892304391 -780308.906626920 172.700166017583
 218720.283818797 -769513.266188581 3281.86014451189
 274523.424935721 -751318.648737351 12537.0339811140
 352425.720903737 -717250.926872231 36704.4840095569
 464132.215363742 -645118.627660402 91669.2037006162
 614482.888235478 -474471.664855511 193099.506252666
 736751.444260753 -99801.6567540617 295358.999674700
 675680.425142067 357674.395473270 235637.411933388
 521333.397907844 594838.822218160 119909.398330460
 394574.514033382 694236.598711890 48440.6635407435
 306279.405509509 738885.428749942 15532.1905009267
 243636.797537667 761993.210364128 2730.97868169907
 197356.896113649 775272.850442059 -1504.30177527108
 161045.516625164 783618.982371811 -2373.19225970498
 132249.594787472 788989.738632643 -2288.45164764387
 109157.074446629 792515.538088566 -1963.41193910417
 93043.9345062780 794568.751010905 -1823.77864946301
 36359.4126071884 -799173.097710261 -594.147325585200
 43006.9905110610 -798842.915945881 -628.020910219363
 52551.0776689586 -798271.980598190 -478.777270203720
 65288.7705002983 -797331.096071619 706.883152365166
 81921.1641866475 -795778.527464860 5045.60047588446
 105653.028487987 -792776.746416963 18505.8885723385
 142017.300100333 -785312.416803325 55816.6147910550
 204853.605620210 -758322.593115212 151597.641919065
 316569.297263133 -636930.995860053 366200.473160602
 444211.131896222 -157961.211884180 646316.273847068
 374909.674097672 520518.935988440 478019.637196466
 242437.759483053 733026.264251227 209514.745769191
 163802.384119927 779248.471774587 77075.2761499992
 119519.113599425 790648.252764211 24300.6560674504
 92269.8117672817 794644.021882104 5211.55672190559
 73226.0184664775 796641.260894724 -807.254365484393
 59318.7485036937 797794.473887074 -2294.23433918485
 48220.7463907369 798542.194539873 -2263.43918925711
 39764.6971967870 799008.573570989 -2016.98212756319
 33746.6780557167 799285.781654141 -1844.17074362190
 -27793.9674092098 -799516.832347204 -574.603470887510
 -32934.7822501968 -799321.531607578 -623.880315509726
 -40310.7346273210 -798983.641687426 -430.104294741234
 -50232.2392677040 -798421.045461769 745.856479433933
 -63196.8834017155 -797482.672962512 5247.88079859097
 -81895.1334935396 -795569.661577649 19028.9434100009
 -110876.517532317 -790179.774041818 57639.5919063236
 -162047.925509285 -767377.265667629 157710.500521082
 -255697.825935966 -652231.301110161 386280.923245982
 -366214.009526329 -164299.200792659 692021.005349941
 -305458.020120625 537531.961478319 507695.566588145
 -192826.247367606 744873.107810130 219048.149016157
 -128182.390121251 785616.475834081 79850.0329420292
 -92662.3514930740 794220.159723858 25060.4569787246
 -71197.5440370010 796806.624907011 5487.46092456234
 -56296.3701558698 798016.359548414 -780.128431699105
 -45524.3240002647 798700.553165845 -2227.62135291070
 -36903.7429790631 799145.096023043 -2286.75675515599
 -30392.7842348799 799419.998683231 -1986.04424813366
 -25746.5129498231 799583.463081728 -1844.62385188917
 -91724.5473431203 -794724.042580351 -550.962288650771
 -108106.778684610 -792661.694392029 -602.200958017988
 -131926.913921675 -789046.897525258 -531.872980465088
 -162398.325746440 -783343.259632630 348.400459373478
 -201936.594031425 -774085.521781831 3635.51354537935
 -254591.915720469 -758285.890756080 13618.5289234294
 -329202.773721016 -728045.260766366 39694.2319490510
 -438754.542346593 -661424.083066150 100063.149612310
 -591208.901746034 -494614.385887274 214076.256903007
 -719860.881689207 -105680.702003240 332613.740302081
 -654782.803352610 376829.078760442 263171.666093170
 -495613.252839855 614016.552746979 131723.864816567
 -369801.680121705 707441.340986780 52663.7108642250
 -284541.702668812 747493.710244644 17005.0753314914
 -225169.835170349 767651.322663190 3161.03508546610
 -181796.316083454 779068.933486976 -1302.43385673534
 -148018.324633631 786183.839245496 -2355.09699712042
 -121347.928321958 790739.992431069 -2223.65961461897
 -100028.020926745 793719.437029082 -1962.22111775071
 -85186.2699790861 795449.611904843 -1792.85456333605
 -154777.458646370 -784884.507751988 -497.780966959901
 -181473.648535492 -779145.021679661 -591.674756602279
 -219091.447296703 -769414.427630976 -613.412368723906
 -266055.532902142 -754462.987729855 -231.425793032421
 -323247.899845392 -731784.233754677 1621.87349181495
 -394144.997437157 -696131.850552019 7082.91199191802
 -482633.234819917 -637685.125049768 20563.1208118925
 -591689.427094172 -536272.480062371 48119.1125513004
 -710106.043182028 -356880.285673854 91574.3912549371
 -786835.765196989 -68057.9223284833 127505.285440247
 -750892.497952754 254593.720402398 106501.145768207
 -640882.782824182 475076.721215510 59760.9206643667
 -527174.623664804 601193.141228031 25568.0093915242
 -432195.503246793 673161.365680307 7798.89278519507
 -356451.998233799 716199.545647738 428.682987746390
 -295077.380209192 743589.421352400 -2027.84163139940
 -244793.494187619 761623.564089416 -2385.75504859277
 -202758.942048846 773875.987594576 -2183.40187635138
 -168680.293966898 782012.479219037 -1854.93205695351
 -144218.965604266 786891.300985615 -1723.48286969730
 -216934.329627320 -770025.528812156 -426.153383114464
 -252245.937793545 -759191.488525140 -520.209223482305
 -300838.214175515 -741279.925090863 -664.491513575391
 -358464.601043218 -715194.222792710 -594.544244747072
 -424836.076215121 -677874.839731146 100.028066478359
 -499938.053462511 -624544.331131983 2514.18993300853
 -583947.148814059 -546752.707039516 8197.84952843592
 -672803.465820499 -432407.842395227 18946.0870638041
 -753433.972788902 -266838.863584994 33678.9181566239
 -797301.995302477 -48731.7383411526 43985.7472931664
 -778012.319817908 182440.626342014 37579.8891894548
 -709304.337177288 369320.214824877 22134.5020995716
 -623205.781818387 501528.840370554 9131.03415286483
 -538761.554087344 591382.191392157 1758.27802147636
 -461894.837858867 653185.234131879 -1486.15995534414
 -393811.563501855 696352.507327305 -2374.44545099984
 -333389.844511397 727217.696275284 -2373.56287814461
 -280623.082460080 749163.938185298 -2019.73099656363
 -235783.392534284 764462.632882871 -1753.49103550812
 -203024.316165930 773807.805097537 -1614.87321175846
 -278503.015858911 -749957.310447877 -320.411108758842
 -320814.188586213 -732856.104801083 -431.343893751842
 -376779.774392619 -705717.120486211 -589.458477698415
 -440150.832957639 -668031.948175820 -748.640845212129
 -508080.534574607 -617943.188804611 -621.125083608379
 -579200.697085022 -551839.234235979 109.791040525567
 -650870.049279917 -465149.101136258 2119.59017021279
 -718543.472462498 -351657.059110325 5708.84921950515
 -772506.556412849 -207671.688801044 10299.9985283901
 -799013.823806427 -37511.7503653956 13029.8868282462
 -787980.934606755 137713.422481667 11002.7253284256
 -744508.636560948 292695.984691331 5995.88456613057
 -682851.821411709 416786.550879735 1536.55474512852
 -614247.899393486 512540.855924513 -1178.60038089453
 -545133.486948392 585512.164966385 -2232.95406668188
 -477830.139324886 641617.050515532 -2432.78451736859
 -413986.323841392 684551.430594214 -2159.29240831667
 -354433.485181329 717198.319168547 -1864.28646580602
 -301811.838606657 740882.632697786 -1593.31216871296
 -261940.127434002 755900.188034867 -1508.43253491618
 -340198.086760729 -724061.613812934 -202.896396061572
 -387489.377134976 -699894.203435634 -294.286847565427
 -447664.090721907 -663020.837733564 -480.217879860494
 -511804.675929417 -614862.198289690 -671.424719967985
 -576310.004443282 -554856.798920196 -843.487176399702
 -638547.924769729 -481929.424758777 -759.818364845671
 -696405.047358469 -393725.678448197 -316.455614825772
 -746150.705709326 -288545.755350685 686.613849103463
 -782639.653501264 -165745.962423511 1857.06966073681
 -799424.642057090 -30233.1551505499 2489.57858619669
 -792710.633729719 107735.247067868 1722.70457509166
 -764581.459844938 235404.241682623 185.092445701133
 -721058.847345209 346514.788902849 -1280.52208584759
 -668304.547764970 439732.635910664 -2059.21143140225
 -610100.260759331 517467.150121161 -2328.16813812423
 -549070.818379018 581821.730974536 -2170.20054123419
 -486534.932231420 635043.322821030 -1933.35433768902
 -424749.225187585 677927.293497456 -1637.20302973718
 -366963.247027703 710869.767246224 -1466.06486419040
 -321653.822145951 732486.769648030 -1396.77825491905
 -402414.269141756 -691420.820496792 -70.5311984274265
 -452672.291429432 -659611.832360361 -164.870358356630
 -513435.422374263 -613501.399505992 -315.999289871941
 -574512.325381745 -556718.328324748 -539.343821329844
 -631718.627887474 -490847.250423038 -742.921335791195
 -683380.604146848 -415920.758480827 -934.098829703552
 -727960.620809626 -331771.630014174 -959.201856327939
 -763904.923638743 -237588.924493085 -877.837516374703
 -788635.326331113 -134364.672889165 -675.826905681806
 -799620.913550414 -24615.5318792845 -685.713570898900
 -795386.115218149 85790.4129036838 -965.801220072642
 -776788.200676007 191305.652711934 -1496.17211355017
 -746486.975211129 287669.382731171 -1876.72033237484
 -707101.223020393 374170.407471599 -2089.63527947211
 -660794.512381081 450939.609516370 -2020.14263720134
 -608545.697308811 519296.258956257 -1878.75516487683
 -551541.519101658 579481.895031651 -1638.91353104503
 -491196.728843375 631445.657097638 -1468.23230449781
 -431566.654073271 673608.526954349 -1332.48129238871
 -382492.342331619 702636.367332369 -1320.36345165983
 -464715.528444090 -651183.134390290 55.7545465732925
 -515474.745930621 -611789.004113264 -27.4565551269813
 -573484.767035279 -557777.006564553 -181.456269515535
 -628019.934189889 -495571.216813166 -362.389909555189
 -676079.726051487 -427686.630238190 -591.893274030984
 -716803.641884688 -355235.013674411 -789.962397333302
 -750145.805155687 -277993.329781109 -989.749734583507
 -775599.802042860 -196070.746058353 -1099.82325760905
 -792461.208915695 -109561.615244794 -1218.53552573299
 -799740.324482729 -20339.6342042524 -1308.69274317165
 -796990.987451735 69304.5397768390 -1498.89526943891
 -784608.445390756 156162.969610194 -1647.52663901168
 -763570.123055656 238657.684612574 -1782.34456161315
 -735028.681742848 315800.138945259 -1763.30868721555
 -699502.049174388 388193.216336172 -1705.86969332970
 -657266.718943873 456068.031847626 -1552.57701502006
 -608142.826561564 519769.417367150 -1433.62182085416
 -552931.022546613 578157.049692399 -1307.74482878965
 -494636.582944365 628755.159430035 -1265.03092172255
 -443994.589328450 665482.652374961 -1282.19930172712
 -524399.501082657 -604156.546922846 173.420078949280
 -573129.351625550 -558142.222078875 78.9818560405281
 -625180.483782741 -499148.634339221 -59.4513941780483
 -671304.064964988 -435144.566629172 -241.856555188809
 -709758.171676952 -369111.301719696 -429.744786162358
 -740917.809684670 -301728.995052241 -642.523801804636
 -765312.269869493 -233015.988395832 -823.856248393334
 -783331.961581427 -162450.053455693 -1009.00804523387
 -794894.315221083 -90231.5011381848 -1141.85443663661
 -799823.319003962 -16763.1074149935 -1287.09256827381
 -797997.777415871 56547.5932200203 -1384.53615072338
 -789585.043912190 128659.444177747 -1485.21178880826
 -774980.423209699 198502.102236068 -1503.01349846328
 -754424.880074050 266159.441991133 -1500.58795932826
 -727930.828371295 331835.317990316 -1425.07576841959
 -694933.390581555 396315.190021536 -1361.18074374406
 -654762.614632721 459656.705144057 -1277.45662638544
 -606954.184107195 521157.432838052 -1244.42453454250
 -553329.339040636 577775.986154134 -1245.94561318297
 -503440.298757948 621728.344620096 -1315.70607024350
 -573440.547181062 -557822.437580196 258.806439672365
 -617756.376184187 -508308.012604450 154.938362983308
 -662662.964744814 -448193.925808877 4.86224233248729
 -700928.210390513 -385615.892198611 -166.019942265402
 -731800.249426736 -323215.514096994 -355.508063915565
 -756036.639044459 -261549.815116337 -542.802881971330
 -774546.449173752 -200193.061247795 -732.325453297448
 -787888.526199324 -138675.387220860 -898.477935965411
 -796319.463813955 -76643.3347535503 -1053.93970982472
 -799871.043127813 -14315.4967997930 -1175.12424832601
 -798563.482215748 47903.2901674693 -1280.49310431922
 -792486.245776596 109378.947321562 -1340.20063638927
 -781748.258335041 169905.197853209 -1372.70994482313
 -766355.779679448 229558.222613413 -1356.97548858715
 -745981.892622306 288979.676327528 -1327.61036449590
 -719938.213730456 348837.109288431 -1280.46627891707
 -687154.564285715 409654.771290557 -1254.24885555564
 -646743.508153433 470872.875212225 -1253.01666528852
 -599417.317464012 529808.613407615 -1308.69528529681
 -552703.711643055 578374.104196451 -1415.17876783972
# End: Data Text
# End: Segment
