# OOMMF OVF 2.0
#
# Segment count: 1
#
# Begin: Segment
# Begin: Header
#
# Title: Oxs_TimeDriver::Magnetization
# Desc: Oxs vector field output
# Desc:  MIF source file: C:/Users/Victor H. González/Documents/GitHub/Intro-to-magnetism-in-python/vortex_dynamics/drive-2/vortex_dynamics.mif
# Desc:  Iteration: 1384, State id: 8739
# Desc:  Stage: 197, Stage iteration: 6
# Desc:  Stage simulation time: 1e-11 s
# Desc:  Total simulation time: 1.98e-09 s
# meshunit: m
# meshtype: rectangular
# xbase: -4.7499999999999995e-08
# ybase: -4.7499999999999995e-08
# zbase: 2.5000000000000001e-09
# xnodes: 20
# ynodes: 20
# znodes: 1
# xstepsize: 5.0000000000000001e-09
# ystepsize: 5.0000000000000001e-09
# zstepsize: 5.0000000000000001e-09
# xmin: -4.9999999999999998e-08
# ymin: -4.9999999999999998e-08
# zmin: 0
# xmax: 4.9999999999999998e-08
# ymax: 4.9999999999999998e-08
# zmax: 5.0000000000000001e-09
# valuedim: 3
# valuelabels: Magnetization_x Magnetization_y Magnetization_z
# valueunits: A/m A/m A/m
#
# End: Header
#
# Begin: Data Text
 529404.411834049 -599772.055037451 -2109.67457152300
 578522.921555548 -552546.375344021 -1931.92365731436
 628328.470960254 -495176.812089332 -1804.81295318851
 670963.949386916 -435665.353140634 -1754.62131516260
 705708.992285817 -376791.487622340 -1730.04690142406
 733577.243349647 -319157.274378155 -1749.92886667718
 755799.369082425 -262229.410767139 -1746.37433792220
 773244.381314558 -205158.628578866 -1750.39569920645
 786365.621459033 -147058.677326971 -1689.61835617494
 795203.418002635 -87458.2200058032 -1607.40484744793
 799567.419014163 -26264.7727782461 -1450.57296846429
 799183.803286430 36105.6516144774 -1276.90490247191
 793834.482443383 99124.7208525564 -1050.80909212002
 783357.836121947 162326.301099837 -820.096083147801
 767516.106212993 225651.762170714 -555.817322698641
 745863.071273260 289289.113562038 -296.117056757477
 717699.159548130 353423.139818535 -24.9943110456439
 682450.713827419 417445.770221602 228.299233120073
 640974.493755672 478697.693775484 465.111484568219
 600118.007911888 529016.030483949 645.035560549978
 480326.752607141 -639751.963275271 -1906.88628772922
 531185.904394256 -598195.925736982 -1780.28214984355
 586260.124712281 -544330.813014495 -1741.31425058225
 635656.662556926 -485734.131165301 -1720.80448655354
 677464.607567256 -425486.185618218 -1792.02170828957
 712168.484667104 -364434.845637081 -1814.58877919738
 740619.090801997 -302456.181847767 -1902.73531878627
 763564.135095930 -238676.090700663 -1880.24547716265
 781194.910456688 -172426.733160639 -1879.77874136713
 793316.667128483 -103177.794815359 -1734.44896013428
 799385.185417571 -31317.0165532305 -1603.06241964311
 798878.844797330 42316.9212471077 -1367.30078961598
 791498.687897613 116311.885950673 -1171.42774134063
 777192.818806064 189658.923036662 -902.944548992783
 755979.192746064 261715.535039841 -662.460428774037
 727648.743713532 332456.264288749 -371.627889838638
 691816.519065431 401733.606511988 -115.529477410057
 648290.164075141 468742.830744726 147.610459639440
 598718.538715690 530599.644436447 358.778573345794
 551946.441635728 579098.313329926 518.713882709937
 421579.707723830 -679902.498774798 -1772.62383944903
 471831.883400780 -646043.095939386 -1729.73857143449
 530107.417689635 -599152.017215102 -1727.99811964774
 585732.479807011 -544898.164398245 -1858.09971586952
 635605.033531039 -485800.872146085 -1937.51699572510
 679014.254074695 -423007.214347334 -2130.58055337570
 716278.359155458 -356287.190501957 -2179.47007023362
 747472.231275355 -285096.599709373 -2278.66329140991
 772369.859711675 -208423.135792568 -2143.89257227480
 789986.956531768 -126160.881841241 -2010.07530054649
 799049.738853771 -38944.1637559995 -1693.20615002161
 798378.369205406 50889.8454705255 -1484.32237158198
 787548.699164276 140590.020765672 -1221.68153113969
 766966.361507222 227511.542370494 -1048.04798156336
 737341.296649387 310366.252316304 -775.679401053971
 699317.683455880 388528.626130586 -533.181938098588
 653288.822942480 461750.646550689 -232.870031648356
 600174.161718130 528952.715802223 7.16885870305136
 543050.920250936 587448.419369938 229.334629575062
 492547.923522383 630393.853962790 363.207556299855
 361341.856389289 -713742.983786075 -1736.63965557487
 408946.846344748 -687575.116910057 -1713.32157180074
 467115.232539664 -649461.238610710 -1859.85796731424
 526305.222995768 -602493.838575494 -1996.67872773716
 582645.343441527 -548196.244555297 -2298.09081089422
 634813.012038733 -486833.052239106 -2453.36378633045
 682024.677832469 -418132.901887397 -2686.10996444251
 723802.086628941 -340740.126179865 -2589.55643311743
 758738.438492243 -253594.626047792 -2397.41403077258
 784651.600886441 -155944.138853455 -1814.05170829313
 798463.490061605 -49541.3740249976 -1306.63627603664
 797634.245682573 61472.2061300599 -882.036221994330
 781564.169473704 170753.388767049 -853.943468376270
 751822.493380368 273426.866208560 -829.025145664323
 710958.357696603 366793.600044007 -817.672371346152
 661204.756411745 450341.975722703 -612.372973045764
 604519.977049019 523980.381211981 -396.804233969075
 543089.928103512 587412.389133758 -122.819760965251
 481250.121037664 639060.494699069 71.5277281491565
 429731.395526472 674782.100301425 211.687668317808
 302317.012768231 -740676.307652522 -1740.99773686166
 345451.285344699 -721567.830310368 -1809.89361151782
 400540.005429581 -692505.529242536 -1948.33749308965
 459619.019805129 -654786.239788990 -2310.15505302542
 519598.404383789 -608285.204195428 -2570.70394010804
 578606.060928466 -552454.758448869 -2960.76409820718
 635799.561908856 -485541.060844999 -2965.68879378692
 689670.236649417 -405397.969385721 -2729.66991970713
 737924.489551121 -308973.521471322 -1676.52925064947
 775945.055836549 -194702.929699645 -198.718870713387
 797423.850613462 -64134.1057816981 1420.89703412462
 796534.864246948 74353.6210142663 1936.25441576324
 772422.246956574 208235.208284646 1403.72262461618
 729734.473386285 327852.778481429 392.420246437111
 674616.603856642 429991.137657892 -243.591056206821
 612166.455205718 515026.167244729 -527.422097882370
 545897.880728578 584803.655979428 -433.323370684487
 479053.262182574 640708.904313836 -268.188737219218
 415958.638363946 683358.184424767 -54.3148139281116
 366134.502488524 711298.475887812 65.4763887892513
 245000.666784903 -761558.535337414 -1808.46058444136
 282321.671786638 -748525.890681799 -1861.34860209060
 331494.685578685 -728084.146031552 -2179.38766476252
 386984.761900530 -700168.994662763 -2484.54618087389
 446401.488696950 -663864.976143688 -3000.72306062154
 509060.940704477 -617127.969685134 -3166.65144541496
 574073.580622422 -557162.749389150 -3032.28040855120
 640583.517771788 -479218.291575693 -1608.03557041533
 705278.330715758 -377598.588279156 1335.04770817703
 761116.006569587 -246301.928320449 6146.92192834714
 795357.176087932 -85397.0345463165 10691.5357234522
 794691.055474033 91252.7424997999 11792.5118542727
 757769.876657461 256339.891594741 8641.41236908773
 696621.910895621 393314.828131706 4621.60490078395
 624464.656834505 500041.147793253 1656.16369070261
 549635.185249945 581292.622302935 224.480365901908
 476705.469320750 642457.629080542 -300.592568106892
 408349.726241931 687931.987354854 -286.098132372380
 347814.179873656 720434.082346524 -171.091606540699
 302162.449093903 740741.420791237 -43.3791999193292
 189085.091381718 -777330.926123821 -1859.97544369222
 219332.389233841 -769343.388148651 -2013.49073238375
 260452.309099486 -756412.231857968 -2264.99015280421
 308496.908892964 -738120.433827954 -2807.55571973304
 362967.328651391 -712913.010635913 -3123.71536992908
 423856.756951624 -678479.763882001 -3264.90261368175
 492402.424218051 -630504.504732540 -1980.43837566150
 568977.337243502 -562371.532681302 1746.11940522478
 652295.681187614 -463038.915884554 10261.9043283142
 733572.766210762 -318272.758838891 23946.7671089755
 790297.465647477 -118184.936815156 38239.2011053158
 790548.178856122 115772.073122690 40378.2613808944
 731728.557544599 322101.798224469 28701.0392540908
 644594.406417597 473563.165859542 15361.6130739431
 553720.504083062 577365.275744011 6552.99344133333
 469634.175028434 647641.491386414 2059.19405191067
 395013.507286914 695675.371015431 327.449895691803
 330348.247805606 728608.260373705 -195.158829935198
 276313.546978626 750766.799889282 -189.578735934548
 237268.516165152 764004.997834763 -120.500174434848
 133918.689438985 -788709.069821321 -1946.22725589566
 156244.772885407 -784591.211860563 -2049.68708847575
 187062.874818655 -777818.301542665 -2484.07927887364
 224526.733600079 -767840.861198401 -2856.18153801927
 268584.119864425 -753559.371225983 -3293.11314001182
 321201.482996235 -732681.812721277 -2639.81599417989
 384836.338160785 -701356.481125520 281.450220553250
 463978.197403765 -651641.243865532 9376.65331207930
 562260.699150247 -568300.232603302 29962.5068061574
 676314.679612061 -421958.409282375 67450.3890064583
 772897.189110313 -173756.371506934 111528.733634526
 775630.023896131 157221.812714061 116958.828815074
 678220.374629013 417265.392791310 76855.1586869418
 557535.568483390 572417.766533016 38626.2919946767
 451802.529444819 660011.015331335 16122.4696793777
 366570.708995772 711051.312472526 5652.10911386622
 298583.517860718 742189.825905264 1464.64488298551
 243945.283902915 761899.386459511 152.886057519877
 200799.435185766 774389.799305524 -159.876914574657
 170683.754894961 781579.834309647 -135.703580011195
 79076.8888242615 -796079.736886953 -1974.37885757593
 92562.2716566713 -794624.117142732 -2176.76845090184
 111661.964287456 -792165.055553255 -2475.98299191267
 135147.259614855 -788496.014650301 -3041.89072594176
 164094.638565520 -782983.837733414 -3042.93317480910
 200002.392764660 -774593.889178249 -1830.22843556872
 247050.832049409 -760887.259521001 4057.66956728665
 311675.779035785 -736485.402854298 21153.2537681353
 405837.776098618 -686404.872925305 64374.2954580664
 542136.811261733 -567475.836389943 155109.164746941
 695059.762994167 -273530.132019981 286484.192833783
 702951.633020876 234580.287360383 301381.967634435
 549807.596149324 554226.769130407 174769.263876039
 405396.940050509 685193.710418586 78504.1412951920
 304584.802167578 739110.952548261 30709.9025029429
 235517.415416594 764473.551127780 10570.5563509803
 185963.970096892 778079.632401251 3080.17339407688
 148964.550075965 786008.413571591 580.185605428677
 120991.295275060 790797.765181007 -32.4405205647451
 102066.413187158 793462.306453401 -124.646532149839
 24230.9292954684 -799630.401991051 -2020.46457724768
 28506.9334158235 -799489.068489663 -2141.05412279243
 34455.6119353751 -799253.401432658 -2609.80928138051
 42149.1461590312 -798883.529931124 -2924.90732372448
 51522.4821221002 -798333.483317314 -3013.84313165269
 63908.9575841031 -797442.721629861 -866.521825436320
 80638.3900220665 -795893.498706921 7140.64217741034
 106085.446493556 -792274.768332076 32350.7265238303
 148842.101381261 -779499.300590315 101127.984433695
 228036.964413454 -717404.901105999 270793.926686305
 353158.851209395 -418559.453620225 583169.623349502
 362649.797075532 352330.241548952 619958.486974033
 235608.785792340 700556.201720460 306120.088018513
 150528.025194862 776260.340602731 121495.667569949
 104410.722203491 791930.009619997 44105.1125405817
 77303.4827180909 796119.709202086 14750.5992976255
 59621.8256794747 797763.614656314 4295.69937714788
 47020.5676613655 798616.377747316 973.350172712980
 37863.6214935447 799103.462770827 44.2161533770331
 31750.8765530537 799369.672918437 -88.6362369009306
 -30570.2913300400 -799413.223705817 -1988.73132158090
 -35838.4347559984 -799193.826245206 -2198.79189266194
 -43119.0879306193 -798833.230179496 -2492.91336079920
 -52400.3214059804 -798276.271139786 -3033.35650858641
 -63622.7985610568 -797460.960321777 -2855.91770316761
 -78231.0268472215 -796165.125388820 -999.776492120257
 -97740.5213344895 -793974.573563646 7153.11286705393
 -126982.637690075 -789220.615263584 31721.1312572662
 -175413.278211993 -774222.564989970 99043.4333374736
 -263564.489800041 -708091.550708217 262945.080828823
 -399705.996709886 -407904.257517124 560222.485173131
 -409100.996622285 344349.950346327 595028.979343977
 -270554.607549779 691773.848871003 297067.578762449
 -175962.973910387 771299.981463316 118883.852592771
 -123839.446601243 789161.643483327 43447.5766895314
 -92771.3628730358 794469.650054239 14541.2988888339
 -72233.6096006043 796720.633296435 4305.59215381749
 -57414.7819300006 797936.493679510 945.975887327343
 -46510.0559514415 798646.861126630 76.8633495567886
 -39150.5569854465 799041.442372714 -85.1977858724006
 -85363.6918276854 -795430.160193961 -1974.93578514451
 -99787.0058477213 -793749.465304300 -2083.21700335061
 -120133.785809322 -790924.418642673 -2537.22325979862
 -145026.313897961 -786739.584417407 -2862.61906258612
 -175548.689410219 -780495.336943044 -3112.33939658217
 -213135.300424571 -771084.036809981 -1658.88207846789
 -261990.640736084 -755874.652560398 3796.54887952748
 -328345.571873364 -729226.644684982 20437.3704922493
 -423683.518731379 -675814.232851956 61379.1383950504
 -558942.600584930 -553266.052306215 146560.037584782
 -706866.500913793 -262424.919077006 267344.182157229
 -713835.533596502 226798.253117113 281071.847323816
 -565343.677858836 541449.883761185 164980.451205726
 -421978.070754112 675504.368302696 75022.3713742360
 -319907.750744394 732655.430825169 29581.2558227044
 -248980.048106398 760198.729958841 10335.6961014761
 -197529.481029712 775224.523517520 3007.03527884770
 -158808.936600610 784078.639790384 638.968108925305
 -129332.142171539 789476.533281603 -19.9745257890869
 -109289.779874933 792499.676264990 -84.4675995833737
 -140110.849543048 -787632.767191114 -1890.47274355111
 -163293.952691425 -783154.392029841 -2069.60353224459
 -195171.044753710 -775823.973795906 -2329.15720287572
 -233783.938900258 -765073.016286814 -2889.57818339080
 -278925.954598969 -749793.972870625 -3051.24530932148
 -332528.650064618 -727610.894328857 -2661.45452033744
 -396782.923771585 -694667.657063389 397.030645264346
 -475925.123377465 -642975.521779133 8817.89833214158
 -572878.212039210 -557680.212146479 28343.1676249489
 -683589.514742999 -410778.375690444 62980.1667078729
 -775484.507340223 -167131.147927173 103397.090229066
 -777707.582952256 153095.167786595 108317.981050954
 -684541.932050444 407716.676068515 71898.9243333108
 -567172.644731342 563014.189686523 36472.0890556382
 -462695.294989081 652436.806375536 15468.6030868190
 -377343.576727932 705394.955969988 5457.21488207445
 -308591.160722769 738084.794031805 1527.20096975579
 -252877.399698712 758981.547114307 178.498155324304
 -208633.959074498 772315.909640707 -82.6846255768270
 -177599.837759660 780037.363824730 -93.0865626446788
 -195174.608009580 -775824.394294145 -1838.91447085098
 -226144.080361021 -767369.025579059 -1906.17405069218
 -268126.772711745 -753725.966928536 -2280.46767724317
 -316942.591771466 -734534.322706625 -2592.73737692628
 -372041.814420627 -708219.782307593 -3102.94550285213
 -433193.828716097 -672558.033478352 -2966.20397471083
 -501560.785916827 -623243.886111752 -1958.68701290466
 -577180.130653730 -553949.306621225 1806.23154849357
 -658620.062602816 -454012.937929967 9584.64027817517
 -737026.070621696 -310305.887563442 22423.8125083125
 -791025.806281269 -114132.357742775 35383.3112235667
 -791018.893569882 113504.540244404 37494.3910390204
 -734641.435600761 315571.178188478 26772.9825605866
 -650284.831804682 465743.341436923 14586.8924698064
 -561225.121105961 570076.320082805 6273.17467049384
 -477961.803744528 641520.074603594 2123.21498617505
 -403363.010823032 690867.673911217 372.349678791851
 -338268.468709629 724965.128245507 -76.8428176070167
 -283533.820418352 748069.885218371 -139.672280597494
 -243823.120515338 761938.503510831 -52.6292715921987
 -250991.717975009 -759605.227638573 -1748.04236379231
 -288900.680277575 -746011.357684794 -1857.72453415139
 -338653.999357577 -724782.289533106 -2025.21560962207
 -394590.806743787 -695910.903106872 -2471.87585935359
 -454130.935309206 -658602.786858365 -2731.80116020245
 -516588.228395110 -610841.306975679 -3082.20308307876
 -580882.784069879 -550061.784031570 -2687.92098727992
 -646193.538501384 -471626.502609390 -1533.89552898053
 -709121.194707105 -370330.972024264 1449.95749297376
 -762966.545789808 -240518.284512618 5744.98221733361
 -795644.477896648 -82751.4245382602 10102.7981005262
 -794857.694616964 89890.8199509183 10994.8077180590
 -759327.855229381 251700.227695380 8258.55016584496
 -700108.973689040 387075.923285489 4433.34780559640
 -629666.711307824 493474.120257352 1767.85378955142
 -555948.899179696 575257.099518989 301.585614364389
 -483577.401764672 637301.245656549 -137.066189966075
 -415250.565525078 683788.651721401 -218.192874143881
 -354428.232832507 717203.333665729 -77.1361900402596
 -308347.475285629 738188.210646395 12.1512068242285
 -308245.361239276 -738228.866303404 -1714.12684988786
 -351776.048678825 -718505.856576397 -1716.28707744309
 -407188.170219054 -688617.476904227 -1940.24114865518
 -466317.790588181 -650033.257607676 -2117.11712245191
 -526082.404436366 -602686.458676588 -2517.19493187457
 -584498.833823297 -546217.972682199 -2653.22033656144
 -640817.751426310 -478899.375317687 -2828.03416841646
 -693468.678392176 -398867.937949962 -2358.00011744323
 -740348.243898407 -303120.626076452 -1537.46660549622
 -777000.612489191 -190446.963092128 49.4004788713513
 -797574.664887631 -62231.0296152595 1397.45569063965
 -796624.514828528 73384.0364983357 2040.97070606349
 -773328.025995285 204845.659018110 1421.33446907495
 -731974.094169982 322821.256920786 601.285388287154
 -678221.009197923 424283.216653977 -121.442601326075
 -616945.684678106 509291.586818864 -318.986812482715
 -551458.075172676 579563.521332502 -340.686834170205
 -485032.900538430 636194.203237302 -145.473476850057
 -421976.506090552 679658.611579348 -3.69383960538087
 -371984.090133781 708256.888892318 126.585612674905
 -367233.381815672 -710729.761656452 -1687.95023324012
 -415031.971088066 -683919.275690158 -1699.20987678556
 -473188.257317600 -645050.267789274 -1739.29920322625
 -532126.777442179 -597358.537745557 -1967.25989423923
 -587924.343854720 -542531.695660379 -2079.68912838737
 -639364.825250562 -480839.937148080 -2361.15983149735
 -685636.570794005 -412185.506498508 -2366.64792602991
 -726400.398503580 -335166.527270008 -2420.75434579823
 -760276.602079650 -248948.541593816 -2027.79893819441
 -785296.535368586 -152665.340225829 -1626.47835089928
 -798547.204288623 -48180.9774681377 -977.718282292916
 -797686.386425052 60794.0187067016 -718.471734269233
 -782133.785596474 168126.218664456 -562.162004351283
 -753277.351374007 269393.369518119 -666.608306070179
 -713488.498955775 361847.800125683 -575.675290091168
 -664763.525998043 445072.138111668 -496.366153053865
 -608984.623302455 518784.798256255 -248.353344513366
 -548191.077290335 582654.733376929 -66.7287156847066
 -486714.358939657 634908.743995425 140.000396223984
 -435268.557679611 671223.674238672 248.670564771871
 -427462.547359312 -676219.430122488 -1747.26354822541
 -477631.866494286 -641767.117703565 -1663.35313229252
 -535584.475558350 -594261.190655554 -1704.94033022239
 -590647.343616030 -539567.195207031 -1719.69059564485
 -639828.672843666 -480224.677531842 -1878.42927724717
 -682429.758964543 -417475.737670868 -1905.92123670369
 -718872.560044188 -351024.227269023 -2057.73800601739
 -749227.001376965 -280454.973286197 -1976.95895747968
 -773377.349554830 -204654.879324545 -1963.55906535427
 -790384.073977697 -123653.562759923 -1676.90762901760
 -799101.398623757 -37877.6917985043 -1495.05236481649
 -798414.329479619 50330.6967466874 -1174.49844723404
 -787907.983288394 138563.802078085 -1040.49223003292
 -767940.921748805 224201.043746794 -795.415894377274
 -739096.384850121 306163.552944071 -642.456336921684
 -701957.137341399 383739.549590973 -367.988021758876
 -656790.674233903 456755.934105089 -164.009644454723
 -604471.342858063 524036.628719630 86.1599328029726
 -547949.397394528 582881.971450364 255.446883063052
 -497785.995666430 626265.876950829 392.282285865048
 -486198.003790187 -635301.505537645 -1870.34008646446
 -536656.668098329 -593292.967592097 -1753.62235491863
 -591082.533796905 -539090.605140568 -1660.62921993912
 -639735.350837123 -480349.754560024 -1671.58111611089
 -680763.318899591 -420188.757157194 -1646.81495766481
 -714723.882160017 -359397.847553562 -1720.30345612002
 -742462.178158332 -297904.448832221 -1689.19221979532
 -764776.206963012 -234764.462512769 -1732.16753184559
 -781858.328207769 -169395.826422084 -1615.11700219290
 -793576.256243874 -101164.845030595 -1549.08227461808
 -799416.738017347 -30514.1847334708 -1327.97129336340
 -798901.172337444 41898.9311452895 -1181.69655073520
 -791738.992886739 114666.910686541 -930.986733070717
 -777845.925128798 186962.960237253 -753.830118219434
 -757215.778646824 258116.298658998 -490.851161560903
 -729579.110119338 328198.480161721 -282.306588281502
 -694536.278978017 397013.043346439 -24.4165878992920
 -651829.046910736 463809.078161839 180.604835535576
 -603048.967742418 525672.704792856 387.221598666255
 -556866.680301478 574368.542877185 526.614802959307
 -535255.419528372 -594556.408653337 -2076.72693296739
 -583625.789787279 -547153.897089517 -1884.24916856438
 -632569.085063152 -489748.177928850 -1753.52152535828
 -674366.901569062 -430379.497881398 -1664.29309239636
 -708354.183238062 -371795.193386036 -1638.67757004003
 -735547.075908666 -314591.678320003 -1604.69748428621
 -757184.136327034 -258204.582422934 -1605.40041159903
 -774125.586157525 -201809.727499973 -1552.65664415804
 -786841.640546513 -144492.095877988 -1505.63304287695
 -795384.033109440 -85804.0658541925 -1379.18724271040
 -799589.610496716 -25590.8128394434 -1251.03314390475
 -799200.363524483 35744.4099827599 -1056.45507218409
 -794003.107863348 97766.5667968797 -873.567453536321
 -783830.693756487 160028.207071576 -645.342297520614
 -768426.131904186 222533.353630863 -431.657934899934
 -747337.110974520 285459.640955670 -189.593558210079
 -719850.797791855 349019.809865686 35.2100982216493
 -685392.505501489 412597.917599460 267.945855799551
 -644780.335959818 473558.963812287 475.555022178447
 -604730.510137035 523737.141192051 645.790507925324
# End: Data Text
# End: Segment
