# OOMMF OVF 2.0
#
# Segment count: 1
#
# Begin: Segment
# Begin: Header
#
# Title: Oxs_TimeDriver::Magnetization
# Desc: Oxs vector field output
# Desc:  MIF source file: C:/Users/Victor H. González/Documents/GitHub/Intro-to-magnetism-in-python/vortex_dynamics/drive-2/vortex_dynamics.mif
# Desc:  Iteration: 600, State id: 3811
# Desc:  Stage: 85, Stage iteration: 6
# Desc:  Stage simulation time: 1e-11 s
# Desc:  Total simulation time: 8.6e-10 s
# meshunit: m
# meshtype: rectangular
# xbase: -4.7499999999999995e-08
# ybase: -4.7499999999999995e-08
# zbase: 2.5000000000000001e-09
# xnodes: 20
# ynodes: 20
# znodes: 1
# xstepsize: 5.0000000000000001e-09
# ystepsize: 5.0000000000000001e-09
# zstepsize: 5.0000000000000001e-09
# xmin: -4.9999999999999998e-08
# ymin: -4.9999999999999998e-08
# zmin: 0
# xmax: 4.9999999999999998e-08
# ymax: 4.9999999999999998e-08
# zmax: 5.0000000000000001e-09
# valuedim: 3
# valuelabels: Magnetization_x Magnetization_y Magnetization_z
# valueunits: A/m A/m A/m
#
# End: Header
#
# Begin: Data Text
 610357.384587986 -517159.353330113 3172.74992599421
 650687.806759698 -465401.290175894 2649.00677008543
 692096.140756523 -401246.106387876 2119.91945537026
 727496.337794921 -332785.762579303 1647.64058301511
 755646.535826307 -262672.409656055 1232.11167654151
 776694.401917388 -191690.068800134 850.619532981652
 790930.288158435 -120120.959048704 484.221886005500
 798522.862054712 -48592.4789331512 98.8285438288180
 799702.065790626 21829.1648860190 -305.827703967179
 794944.993113328 89788.3116863283 -719.033079978945
 784962.663397396 154377.601375610 -1083.17384566958
 770481.166910329 215306.430315484 -1382.93213884157
 751919.972860210 273155.285492614 -1595.12424242376
 729254.912644893 328913.649082047 -1756.08394516833
 701859.476452077 383913.759105813 -1871.06484653564
 668644.890466029 439215.291229780 -1984.54115903927
 628167.382383783 495379.987067855 -2099.55275179692
 579381.304262853 551645.028624634 -2250.92523267556
 523273.467670392 605127.186716161 -2442.52516628218
 468693.646844653 648320.229156014 -2673.17686552523
 561464.080236592 -569868.742680034 2775.37751567809
 608522.295927990 -519321.713635336 2360.74255004510
 658809.074467130 -453835.744479815 1928.84219547535
 703240.805470919 -381379.063027574 1542.66160358577
 739729.420915712 -304629.189716346 1200.25183545200
 767869.603806158 -224444.768028589 904.242869150297
 787381.758114789 -141525.987503220 601.539111364822
 797961.980072844 -57066.7450359693 254.890616666420
 799557.238847774 26611.6563384579 -203.845646800204
 792805.132237401 107049.203762969 -700.194081411981
 778969.811033916 182221.423853328 -1177.36428159167
 759369.188779756 251706.449669656 -1516.02330843222
 734986.222984025 315898.985477393 -1755.84681268445
 706014.390292360 376218.276917245 -1867.83658976289
 672128.653701991 433865.496155839 -1950.41487791705
 632336.310365763 490047.824042897 -1980.08682528902
 585749.408346922 544879.329145061 -2036.49003406678
 532000.684977015 597470.412299697 -2092.27398215838
 473516.699929633 644807.778281287 -2205.43775700560
 420918.675923237 680310.169478686 -2354.05244417245
 499698.042730902 -624736.883794200 2385.81600668546
 551412.235226743 -579603.506710847 2078.90613937382
 610468.658172845 -517034.665979264 1780.88864259555
 665891.311407324 -443380.641481711 1538.87995045054
 714032.676462710 -360770.527364670 1401.25961763430
 753047.773449980 -270031.890705268 1352.36983341950
 781304.894445193 -171932.772773065 1335.50086152401
 797023.218122193 -68940.1030226459 1118.91437107609
 799250.307292839 34621.2635317470 560.717190683115
 788842.649754703 133143.458880038 -305.426648858830
 768267.975196117 223076.357107813 -1121.24375831569
 740366.444858819 303075.045466157 -1744.74720259224
 707033.192496912 374299.143402302 -2053.27931050516
 669286.595387911 438235.793954673 -2200.48425954066
 626970.677054388 496893.371082063 -2178.96504460819
 579817.653563143 551186.779222018 -2150.12264508737
 527348.075990878 601581.021724389 -2069.06978138964
 470477.454852413 647029.197237044 -2045.09128932154
 412447.561816078 685480.003681749 -2042.86672160924
 363736.500269306 712524.542142693 -2129.60470100704
 432526.521362838 -672990.785489963 2052.06319745258
 485896.618837843 -635532.093475129 1853.09607769246
 550873.599929130 -580116.617393200 1728.33023249023
 616433.917125409 -509907.832977589 1796.57605569898
 677610.626534889 -425251.875191134 2163.66666101380
 730829.136945935 -325392.426553729 2922.55578841578
 771810.578444509 -210460.673419873 3838.74260733890
 795613.231845645 -83553.2441970058 4294.26318280586
 798631.470195919 46644.2883284891 3476.37440944755
 781950.655209529 168968.909977782 1637.15555437207
 750907.802641711 275930.003729649 -323.996225308578
 711118.295288934 366480.544620448 -1667.48914863258
 666536.066018846 442406.942066162 -2402.14649596197
 618733.143427145 507111.991653603 -2593.28862269443
 568408.766676208 562942.998536612 -2579.60544303618
 515274.911449651 611952.655791182 -2390.12566073863
 459857.467226780 654619.056241354 -2236.30084050152
 403149.748025552 690989.168446563 -2061.49374530475
 348785.737425297 719961.472180986 -1996.98364551277
 305202.100026065 739491.470714284 -2010.69154930499
 362366.918414092 -713222.982640234 1787.02905486786
 414051.763741691 -684513.125802856 1708.08255065160
 480871.572474496 -639342.612596420 1885.33930397246
 553508.046474244 -577600.336531343 2587.22383011991
 627343.056511746 -496409.697424213 4254.61510616602
 697557.018520393 -391614.682433493 7221.24749978367
 756673.460445650 -259462.659824389 11153.5830144433
 793320.716738112 -102209.172562215 13983.0410953685
 797231.828981125 65254.1012076615 12779.4027634284
 769651.754778624 218113.511074657 7916.60614600568
 722457.620635566 343579.605998793 2835.61762413302
 667096.864163148 441566.887746102 -676.365222990083
 609653.271518909 517993.396344076 -2393.71473240872
 552741.140243794 578332.175078049 -3021.11758880168
 496451.836535085 627317.105741572 -2970.32741613913
 441038.463565688 667440.993521231 -2755.68920762711
 386303.142502934 700545.532280570 -2416.46313672238
 333637.820308680 727104.553588060 -2184.72222088771
 285316.918645499 747388.956571377 -2000.88225192330
 248038.539007495 760574.082987868 -1986.82012056707
 289484.400283393 -745785.657131020 1592.35995204492
 336024.347940407 -726006.040787998 1693.02408753752
 399530.827840281 -693086.901949143 2379.90583796871
 474055.692241523 -644400.439625752 4390.22363296986
 557281.307713148 -573896.634453198 8955.27982902412
 645926.356791159 -471666.851514896 17593.2596333051
 730283.341094251 -325229.194699566 30202.8580649447
 788571.151499893 -128277.874238213 41235.0094344268
 793371.031898199 94988.9988426720 39236.4096682438
 745867.145294270 288166.854716894 25339.0097112857
 674616.044813874 429840.311941079 11423.5856928206
 600414.982306615 528672.840551698 2622.34336913476
 531450.858340156 597960.835242929 -1680.67994835670
 468607.331527046 648380.442030595 -3157.72565471434
 411346.856317222 686135.662879851 -3408.21395536986
 358091.810628446 715374.623493673 -3066.46736926756
 308748.646619777 738015.584977205 -2696.20867305345
 263123.349216049 755487.142692658 -2297.89543113483
 223092.372368507 768261.304529944 -2088.38524704241
 192833.171653476 776409.253126758 -2009.86795872731
 213392.729693207 -771013.235808751 1460.52107188135
 251099.110142101 -759569.597951893 1806.30923268654
 305146.847536868 -739509.552002666 3320.23118574248
 373352.334153922 -707495.845339361 7593.64269389111
 457853.591367615 -655782.030901705 17889.0138971545
 561006.912255896 -568973.581177471 39246.7619452744
 677517.261718029 -418726.885888885 75087.6495031026
 773335.823162114 -170970.841047288 112785.974862828
 778858.320150385 146337.719457867 109384.592134322
 694752.836268377 390839.377826686 67550.5531960647
 590736.365915499 538597.094101463 30719.9643621016
 499629.946211837 624719.846012631 9748.37659881225
 425288.665974896 677590.879248738 388.525695986796
 364486.247402491 712138.172125064 -2999.87613452799
 312766.762065351 736317.617035286 -3649.57403455157
 267907.314913580 753799.583183370 -3443.69109719966
 227796.284060980 766877.065457835 -2901.62761046366
 192445.448146999 776504.048443990 -2492.43607629870
 161957.449366106 783431.621288800 -2163.18275423911
 139498.043918083 787741.050146714 -2081.74368753422
 133850.033455222 -788721.993072570 1336.48332164071
 159075.498452914 -784022.379185288 1973.50667547762
 196551.321117767 -775465.890562977 4497.85951644430
 247000.298535401 -760821.198189475 11914.5670905631
 316154.289889631 -734218.497487544 31139.4112262216
 415031.121286011 -679677.100105915 76080.2731047370
 554699.654293503 -552179.758224783 165546.996751644
 704876.694591504 -249548.070195898 284384.609434581
 710659.058012541 239787.143266931 278326.838786010
 571126.995639636 538528.145916260 154276.994097106
 440843.178394927 664428.636146649 64744.7258930187
 349528.875989021 719290.058713746 21245.6180288791
 286244.650890207 747028.365313440 3552.64040879663
 239254.703118902 763381.541799922 -2410.11922117967
 202343.292317691 773978.113198156 -3882.31171592502
 171245.472708995 781448.337728375 -3671.99376809614
 144736.273445973 786791.780736391 -3178.82283758956
 121440.210588316 790724.642512515 -2610.55084616683
 101967.425765195 793471.729317778 -2293.21963065273
 87557.5054509439 795191.205441876 -2151.74977717639
 51705.4417196822 -798326.537394831 1134.45482529890
 61421.2009636934 -797636.251340592 1961.28006801864
 75879.7575974121 -796375.938221690 5256.17812498489
 95680.7915243804 -794110.182922039 15303.7091188631
 124684.931120982 -789037.437726734 43284.9837355525
 172498.258484126 -772485.575990376 116234.184759741
 259559.181315286 -699166.189576722 289474.818849078
 392552.965248748 -373057.897181538 588837.817081159
 396907.450358176 383515.405159479 579120.375963005
 269727.958885533 701331.293492509 274556.451323891
 186567.882554488 771116.185899321 102821.461977634
 141929.826065340 786652.638940144 32148.8743437308
 115232.143844114 791632.303305757 6312.63715977532
 97083.3722374801 794084.694251128 -2077.78514109693
 82669.4674391232 795707.105781618 -3995.11726644765
 70818.5015064731 796849.412187867 -3969.14855203201
 60074.5631804517 797734.324699654 -3315.72837629006
 50835.4299978097 798378.347379750 -2788.09829764914
 42677.9663292420 798857.319828085 -2360.87845689193
 36756.5831203883 799152.014102184 -2238.73931886694
 -30919.3754701585 -799401.893869496 777.366321206060
 -37882.6847381084 -799101.034099107 1561.88948780216
 -49423.7833299855 -798457.850097002 4727.71190156516
 -67030.8679790461 -797053.053477427 14604.5431385935
 -95114.2423255343 -793193.049612845 42403.6195709085
 -143502.044263554 -778480.056663682 115654.505615184
 -232464.043276633 -707830.268552087 291439.152319931
 -368500.359508816 -380638.353062421 599434.674689246
 -370301.306822947 393000.752953430 590277.350355963
 -236151.378096639 712357.300682030 277091.325717839
 -147727.068812961 779535.300742939 102476.475522665
 -99295.0217950131 793191.408915945 31430.6771907056
 -70626.3672340523 796856.451419721 5631.34815929722
 -52440.4637222304 798275.585796029 -2467.16164955102
 -39703.1289944418 799002.280164702 -4360.94481259541
 -30904.4826498993 799392.286271827 -4109.20932096236
 -24145.7581661130 799627.823825698 -3510.80138464433
 -19380.2573793278 799760.179963030 -2839.04374949626
 -15636.8630307903 799843.371740245 -2463.57418256055
 -13269.5372362188 799886.658744341 -2291.84300282649
 -111248.547710602 -792227.029420042 307.389943269188
 -133657.154872847 -788755.413929076 813.602401960760
 -168363.119235557 -782077.155183939 3030.41592380992
 -217239.204056812 -769875.698301592 9926.59989113914
 -286967.185124257 -746212.642482969 28574.9341284484
 -389627.383110041 -694850.136223120 73306.1424543269
 -537560.164070779 -569203.846915816 164426.429324586
 -699507.482644106 -259990.082975480 288261.059595828
 -705059.643689927 250838.294190745 282791.529235428
 -551707.559412913 558508.811806597 153904.762827633
 -409614.864953247 684332.426269113 62488.3410402419
 -310559.466197159 737017.790630129 18910.1626121912
 -242950.542352449 762214.992625963 1827.28948294099
 -194412.230239962 776009.050195431 -3720.04676159858
 -158262.213500074 784175.504399955 -4674.40660774407
 -129678.445366435 789407.943640245 -4312.69347685150
 -106974.532635034 792807.708968756 -3519.37028855508
 -88169.0869270634 795121.124621836 -2934.15925854151
 -73289.3693556867 796631.998244699 -2475.42160128749
 -62614.9650310996 797542.390203904 -2345.63040526483
 -187191.572273896 -777791.290564401 -153.596188937166
 -222039.512358173 -768569.094639436 41.4350292091026
 -273715.962821057 -751716.903481371 1126.37352634592
 -341486.210453313 -723439.450524050 4746.52459148311
 -428612.239464262 -675344.612355115 14184.5953184917
 -538270.557889111 -590805.023593878 34845.8118858214
 -665090.527266979 -438925.384122742 70704.2976942494
 -771446.353230681 -181284.087691764 109574.648695988
 -777773.169158864 154088.626237571 106421.767513955
 -683217.229561257 411288.193300689 63688.6118713291
 -566702.233442831 564035.435152517 26694.6905435864
 -465393.469455529 650667.103308233 6421.78017519633
 -384056.706780085 701780.279422183 -2210.29214350787
 -319476.076437330 733425.063352574 -4765.81897290003
 -266784.780062245 754189.023942236 -4979.68796178093
 -223390.842528023 768165.587447180 -4261.65889646854
 -186538.610946033 777940.009264226 -3562.10784534405
 -155672.072845757 784702.429018208 -2881.60178180035
 -130025.075237958 789358.691778247 -2517.04658208725
 -111657.355426427 792166.068842590 -2356.76762827324
 -258014.718791176 -757250.399652595 -486.942599915217
 -301859.972224082 -740864.546918981 -529.421769063765
 -363843.172917246 -712473.218985754 -240.311442724073
 -439657.596501873 -668356.191734931 1094.90080685481
 -527804.369219893 -601164.762817470 4845.18100853708
 -624969.726587519 -499252.964233803 12622.1453359700
 -719915.420960502 -348009.376425808 24723.6846562621
 -786943.529350937 -139450.729931757 35684.3878214417
 -792981.219474076 100173.666339167 33852.9486688657
 -738280.331250108 307470.351358667 20103.1222602207
 -656027.001903035 457801.151542742 6832.16073112086
 -570854.899214121 560466.999809234 -1194.22278981836
 -492935.839720090 630074.476607624 -4517.94721952407
 -423868.884305034 678459.075347965 -5334.04124372474
 -363452.225941720 712656.122404032 -4871.41232673962
 -309893.910871230 737528.415904490 -4195.20420798924
 -262849.038800255 755578.452399794 -3403.68490236796
 -221362.783303048 768758.899220830 -2876.28877310167
 -186444.134019495 777966.882975157 -2472.62687028521
 -160696.610018778 783690.606138986 -2373.47382165276
 -324290.336995727 -731324.372042839 -663.466160167207
 -373871.981982945 -707261.680606982 -810.082174790532
 -440707.270761158 -667664.713869245 -965.065878664078
 -516934.671999337 -610555.435522919 -777.842115729108
 -598067.065804823 -531333.933400741 189.780153454336
 -678193.569268939 -424319.842351833 2480.72343734551
 -747624.482674932 -284646.626439215 5825.02891094107
 -791696.768901828 -114651.329876857 8443.85385203119
 -797024.121383460 68554.3896398732 7269.49750858272
 -764379.996413652 236040.536902600 2843.59304361229
 -707983.422705661 372500.632226030 -1658.96509497914
 -642036.717326051 477252.936575922 -4299.78311649163
 -574512.405116346 556693.057474796 -5323.16886788205
 -509384.906913711 616847.179967431 -5154.91752957668
 -447426.583904676 663165.091998734 -4638.18603571892
 -389479.852218354 698777.799435437 -3877.07778325593
 -335289.863058253 726340.032353226 -3296.22989094365
 -285996.082717841 747126.949421602 -2749.93054834342
 -242756.128557077 762275.113948797 -2472.38798078319
 -210438.560824098 771822.529052397 -2365.53703107644
 -387274.389166709 -700012.900766088 -697.321016199370
 -439796.303860491 -668265.243735220 -880.412492964560
 -507095.782318003 -618750.749282888 -1173.80456453741
 -578959.148406421 -552090.688435310 -1475.20152428624
 -649493.854405240 -467071.017542630 -1548.43841207625
 -713342.725002430 -362133.186901452 -1308.29304994798
 -763942.120055800 -237469.707062721 -758.572472408592
 -794092.370497885 -97041.2717304498 -546.532694716552
 -798530.451660412 48451.6448575032 -1247.34983893812
 -778198.325836081 185470.778252947 -2820.65243643466
 -739714.748658621 304638.411002480 -4186.78382518960
 -690333.677560221 404245.620402192 -4989.18949606843
 -635598.026312255 485788.073900319 -5009.61118083895
 -578220.064103005 552846.529164740 -4719.39182717870
 -520107.324548343 607841.597277490 -4118.68550799674
 -461763.708069556 653269.664112343 -3608.85860055432
 -404573.736222316 690152.732276069 -3049.27712606845
 -349594.369479531 719566.893470527 -2694.93031118916
 -299882.347651312 741663.477136869 -2421.62102488592
 -261536.468250489 756037.683447322 -2386.83528291086
 -448324.148969099 -662574.555790807 -644.569427593843
 -501165.960688380 -623563.977440098 -803.670566912697
 -565459.175860655 -565910.459936980 -1127.72731853663
 -629717.776620897 -493409.798892204 -1513.98969249648
 -688499.396010725 -407387.850629456 -1928.95110832372
 -737938.528462657 -308936.456688114 -2234.71236664039
 -774710.151028981 -199544.038957375 -2521.58863257038
 -795686.381777484 -82917.5584844410 -2803.63136604140
 -799213.989053536 35296.4947026825 -3340.23394950420
 -786197.701781376 147912.102139989 -3896.63370253612
 -759778.405721697 250434.616639592 -4390.55663627184
 -723801.419064948 340721.900237204 -4482.46118961626
 -681033.916874330 419730.244405841 -4396.13441811819
 -633527.571601555 488494.306266798 -4016.06344036605
 -581970.296490470 548905.380528727 -3668.40965644450
 -527360.123247120 601565.446534647 -3211.53302219438
 -470270.346532484 647176.502101035 -2894.18390703081
 -412787.852433935 685273.345365932 -2575.07552579977
 -358160.643115906 715342.579709203 -2438.72462265209
 -314815.773719713 735448.952661685 -2422.11603521742
 -508192.393105698 -617851.273308845 -543.746396090480
 -558805.659688517 -572482.112698867 -682.158283888689
 -617019.887239451 -509200.898700744 -950.533203092848
 -671684.617754970 -434554.939735875 -1333.65007004442
 -718584.533217484 -351615.207391268 -1736.24647064234
 -755857.236348639 -262059.361177535 -2174.73644879810
 -782230.174993965 -167658.809079622 -2545.00823442373
 -796886.715551058 -70447.6420051720 -2948.27308055787
 -799562.658373938 26245.9884681050 -3271.60867663248
 -791034.175434944 119381.371432928 -3608.52445618487
 -772960.393577805 206199.627448557 -3734.11303011328
 -747081.802059411 286102.136509070 -3787.94358578246
 -714939.252503120 358955.193958437 -3610.25768339083
 -677127.565089371 426012.222038815 -3441.98630017286
 -634084.966495977 487776.965844003 -3144.33710258504
 -585581.762732308 545055.383416189 -2937.37371732889
 -532172.977408260 597314.600658410 -2681.40946367962
 -474968.819895622 643737.622440159 -2548.25078267769
 -417909.802602366 682162.262505552 -2458.55692589271
 -370623.991986870 708965.076677946 -2525.19598268107
 -566383.445462275 -564986.370352723 -440.479215073785
 -612138.205709926 -515059.722739727 -546.920019361618
 -661817.134606961 -449441.286305554 -781.347963751872
 -705820.206736497 -376585.525943302 -1085.08638161310
 -741709.354059521 -299775.100799997 -1457.06587344209
 -768964.584615726 -220658.508089042 -1813.95002185958
 -787630.065146854 -140121.642798813 -2192.18980140860
 -797785.353864596 -59433.3036340118 -2492.30381141862
 -799740.627654195 20177.5564762231 -2791.89790709280
 -794093.286814540 96990.2229783786 -2957.78340731290
 -781678.123711098 170204.965220389 -3095.27475739794
 -763399.147932138 239190.993568816 -3067.49605493088
 -739736.221313699 304599.879858245 -3039.08981002309
 -710912.358924996 366872.257433569 -2892.17103496367
 -676445.601057053 427098.932591678 -2801.89036390011
 -635869.027650069 485451.895518019 -2652.69925109004
 -588510.685842554 541893.409393849 -2589.49891630543
 -534934.783248542 594843.168088871 -2526.46963791225
 -478052.460190451 641450.858099603 -2577.19792400343
 -428484.801737736 675569.003044513 -2701.25993152158
 -620195.628265167 -505328.857493098 -358.420836063447
 -658749.194073927 -453926.529280631 -453.124919648514
 -698433.161667500 -390116.269167311 -644.371101732127
 -732152.518470515 -322415.652357473 -914.774391448989
 -758688.994580119 -253750.950150348 -1210.28955324080
 -778286.056434364 -185117.406936294 -1536.23208793166
 -791390.279284914 -117038.826613845 -1827.27069692583
 -798445.537797598 -49802.0889569248 -2115.44478329201
 -799837.796802945 15940.7843450286 -2321.68039905121
 -796007.705642675 79783.8058250651 -2505.37134035949
 -787435.186669358 141206.127435235 -2579.99413511877
 -774477.809221708 200442.397700790 -2639.73996849442
 -757330.845264840 257765.768108997 -2607.60457541243
 -735728.424916536 314160.675629044 -2598.97251533687
 -709127.748804830 370312.534988265 -2542.10652010642
 -676461.242998776 427075.777217882 -2543.07575435801
 -636700.870953672 484360.959350866 -2542.04318323256
 -589161.961056144 541185.077316117 -2625.97312022825
 -535600.232511723 594242.994383559 -2766.68745050800
 -485656.954314889 635710.897260631 -2996.30266648573
 -662614.584917417 -448265.330897264 -323.991183247111
 -692753.889091739 -400114.833937984 -410.866219567845
 -723520.659253537 -341346.602248496 -593.941694137975
 -749391.556198499 -280020.707524922 -835.975856313356
 -769464.883789058 -218912.189136089 -1116.27198178327
 -784058.326807219 -158904.311316128 -1400.00336122295
 -793706.008246465 -100139.623714870 -1681.73592056202
 -798857.443096997 -42697.5058372594 -1925.77356045269
 -799885.598788752 13358.4692820157 -2140.12822099777
 -797115.185455896 67839.0397325568 -2290.37197333368
 -790825.678255800 120784.813183612 -2403.23021229770
 -781207.532792743 172362.312942829 -2454.34000811501
 -768234.704892575 223179.836044236 -2489.77546901483
 -751619.067601385 273975.464616451 -2494.39496163421
 -730662.604024304 325769.569538357 -2519.25449624462
 -704321.571170802 379373.960159070 -2553.96490130362
 -671220.413047743 435265.613844452 -2646.22611100862
 -630238.858950443 492738.420537535 -2798.14135099261
 -581944.206774055 548936.821103113 -3050.67850263902
 -533939.424086288 595732.578373122 -3374.38458342635
# End: Data Text
# End: Segment
