# OOMMF OVF 2.0
#
# Segment count: 1
#
# Begin: Segment
# Begin: Header
#
# Title: Oxs_TimeDriver::Magnetization
# Desc: Oxs vector field output
# Desc:  MIF source file: C:/Users/Victor H. González/Documents/GitHub/Intro-to-magnetism-in-python/vortex_dynamics/drive-2/vortex_dynamics.mif
# Desc:  Iteration: 1300, State id: 8211
# Desc:  Stage: 185, Stage iteration: 6
# Desc:  Stage simulation time: 1e-11 s
# Desc:  Total simulation time: 1.86e-09 s
# meshunit: m
# meshtype: rectangular
# xbase: -4.7499999999999995e-08
# ybase: -4.7499999999999995e-08
# zbase: 2.5000000000000001e-09
# xnodes: 20
# ynodes: 20
# znodes: 1
# xstepsize: 5.0000000000000001e-09
# ystepsize: 5.0000000000000001e-09
# zstepsize: 5.0000000000000001e-09
# xmin: -4.9999999999999998e-08
# ymin: -4.9999999999999998e-08
# zmin: 0
# xmax: 4.9999999999999998e-08
# ymax: 4.9999999999999998e-08
# zmax: 5.0000000000000001e-09
# valuedim: 3
# valuelabels: Magnetization_x Magnetization_y Magnetization_z
# valueunits: A/m A/m A/m
#
# End: Header
#
# Begin: Data Text
 518216.701809005 -609465.685128400 -1740.29226481191
 568674.191286611 -562678.499870637 -1603.10568877126
 620047.046154908 -505508.978589248 -1527.45547540033
 664242.093885890 -445847.748876196 -1491.82174473040
 700455.903206476 -386470.244196354 -1509.30911710247
 729688.304939872 -327952.240444593 -1518.42726113640
 753152.717578780 -269738.013291592 -1545.37671888009
 771694.633233079 -210914.892130441 -1517.00918492069
 785697.540043009 -150589.557702059 -1469.92566531211
 795109.763965583 -88310.0051526441 -1343.96299601331
 799634.916243142 -24136.3824064226 -1198.23585048931
 798932.226080848 41307.3521913163 -1000.39214474461
 792781.845561343 107220.779473113 -806.100197031252
 781079.830594955 172956.537408100 -578.278096651444
 763667.646539803 238351.844557440 -351.886948232140
 740151.510191462 303604.565177757 -99.8224627896023
 709852.721349284 368929.658109027 146.152562354191
 672198.795448198 433761.017470563 398.899605485811
 628114.981783211 495450.472229725 631.843983376006
 584817.027110884 545883.105332400 824.690150669953
 468954.836321562 -648134.910729166 -1580.81773541065
 520487.097493191 -607528.529962103 -1505.53153416824
 576691.441251149 -554459.051368998 -1463.53772173272
 627452.199161544 -496287.661355784 -1514.91034389163
 670750.295066717 -435995.027153754 -1542.06520928274
 706975.398956437 -374410.314652550 -1643.63991348078
 736947.063967615 -311297.752816985 -1653.48135996360
 761318.449482964 -245746.519539705 -1693.10690071545
 780177.486098014 -176976.221333115 -1583.43564285001
 793138.739550725 -104540.744824818 -1473.93872342274
 799474.385807299 -28968.2678996394 -1243.33942980108
 798528.993288901 48479.9761528827 -1067.14067992477
 790014.682334988 126000.386818064 -839.176289340855
 774021.593726090 202213.097127965 -660.148195547387
 750743.414338497 276376.829692780 -416.936859120714
 720130.274931049 348442.748428285 -195.436625785701
 681892.929901472 418356.340724651 65.7713081670978
 635948.621242415 485354.783519584 291.983780866059
 584119.144820239 546630.187624199 512.476736587818
 535674.210669943 594182.372057670 669.894808204694
 409845.378260625 -687040.391328758 -1505.52357419335
 460140.296082234 -654422.480923937 -1457.52623064889
 518897.761072569 -608886.497446568 -1531.92073105784
 575475.651195772 -555720.455978771 -1596.77410741967
 626659.534873721 -497287.283797278 -1784.57988793896
 671700.991049225 -434527.687221278 -1862.16584017410
 710792.967047798 -367109.411642337 -2009.44743771605
 743927.866089281 -294223.734101773 -1929.85674523923
 770631.176072070 -214765.601707804 -1823.94870065276
 789609.705444672 -128508.259628154 -1462.96784690852
 799168.870595826 -36438.3821366734 -1166.43810534479
 797856.345353211 58519.4029304815 -855.371427071504
 785292.310373114 152693.875272164 -753.474104073363
 762224.004467137 242928.365491349 -613.395292193950
 729796.014908195 327715.607445769 -507.208603641775
 688972.074968862 406592.424848456 -282.787821492082
 640390.406957859 479479.009632043 -77.4507844278538
 585131.539569653 545546.563814519 167.663406606179
 526471.058361882 602352.140738312 351.077330530754
 475190.427687458 643578.908808546 495.551220168050
 349069.754645106 -719825.033534700 -1492.47739469759
 396143.234678205 -695031.083839403 -1526.47165527267
 454096.612433048 -658630.161487476 -1605.28994666464
 513568.805857506 -613387.011685777 -1858.90970397135
 570813.255083107 -560507.042479141 -2020.68125026425
 624455.004820143 -500050.653453610 -2300.20340269931
 673746.184125552 -431347.662561118 -2296.38396568556
 718032.416614358 -352738.733432839 -2198.77855673382
 755662.194375250 -262625.453140784 -1587.24748553008
 783820.642898582 -160076.657384973 -814.571364981455
 798616.999623840 -47020.0131547170 79.2132984542641
 796835.202126545 71088.0284819354 390.971226621750
 778012.117604436 186271.489091599 277.870939810211
 744577.647812796 292581.806996765 -112.214400132069
 699962.532816533 387365.937899851 -287.763850790721
 647005.142467556 470514.861599291 -332.618007334967
 587921.807484100 542538.405451760 -163.995397986351
 525031.808187171 603607.157320689 4.79025223493380
 462633.055398543 652664.243894649 201.975336753102
 411254.497949359 686199.414738158 318.008537445326
 289319.722239444 -745849.634497669 -1555.97011019980
 331417.638416322 -728120.761941698 -1582.71159450318
 385510.659641758 -700983.733401893 -1826.69332987436
 444065.265940112 -665433.592326618 -2042.98527448621
 504142.895634827 -621155.342510251 -2445.65980971401
 564144.946662465 -567215.903293171 -2568.69743585977
 623291.548085511 -501498.838110793 -2561.53444108089
 680214.219929669 -421076.792091790 -1717.60506472520
 732301.923707504 -322077.444406542 -111.080326607938
 774107.382543129 -201870.194434393 2486.94415823004
 797575.006192836 -62061.0303748573 4747.42091132004
 795249.047844662 86892.1116584967 5358.43574988382
 766633.946326488 228597.944267092 3920.74186021517
 718438.919365207 351910.838505865 2069.02959233433
 658571.211458270 454184.492844983 637.100881603647
 592842.222054805 537157.425413187 8.52039479421974
 524881.873576031 603737.510753283 -192.095668578259
 457682.483381579 656145.363056823 -83.3348767533364
 395237.542840007 695548.188896416 40.6535285447141
 346463.135291105 721084.786096957 164.753643464162
 231131.987341391 -765882.085643525 -1623.36623808179
 266900.675110565 -754162.431480940 -1748.30440179897
 314322.606823196 -735661.285022236 -1942.30772594962
 368224.082412406 -710214.954911183 -2396.44571115690
 426643.042197296 -676733.845344054 -2648.98291539820
 489145.814330597 -633031.024860522 -2844.97572828948
 555406.637481778 -575777.144178420 -2036.48789077038
 624944.931875412 -499443.486039339 190.725216635008
 694764.447102711 -396579.743224055 5183.65762828038
 756850.580781931 -258881.443059325 12553.7567913239
 795264.122684134 -84670.9057559884 19642.1203004022
 792362.127029918 108369.801016660 20451.0605161205
 747734.785837488 284028.050155251 14857.8859051662
 678554.822065356 423671.682783682 8103.00309116695
 600936.568436954 528074.967874030 3474.04951899955
 523613.026822166 604837.469316044 1016.78586380509
 450460.065872980 661124.583470558 119.099081440374
 383395.096689381 702145.414788801 -127.771679196231
 324891.154837167 731057.955955419 -50.4267367644496
 281223.916128706 748941.324974029 27.2650440829035
 174244.226340598 -780791.860378338 -1737.91654044794
 202480.156071924 -773949.915809367 -1820.49876762973
 240995.405741399 -762834.416054425 -2206.37586151248
 286341.270016409 -746995.536141243 -2519.14081524408
 338207.082553953 -724987.800316483 -2942.56735048714
 397146.616356866 -694455.401163970 -2502.18114489821
 464945.118273638 -651018.998141055 -548.682903643260
 543223.388934831 -587263.034915027 5520.64638867156
 632011.698856471 -490130.263407137 18263.0063518717
 722950.769480195 -340275.879435097 39427.2847488237
 788410.867381103 -121123.098158923 61135.0904780672
 784963.254231596 141118.712806604 62595.5142318493
 712591.979602872 361082.971767610 42799.0432735532
 614630.163804974 511587.369097997 22541.6397021309
 519159.772883178 608588.111337466 9676.82585268228
 435012.743644920 671380.886807137 3408.47423064774
 362829.348621055 712989.624899340 811.520252652875
 301624.094702540 740960.797597032 43.8091760697339
 251207.388307675 759535.933192378 -119.370103109585
 215069.317433126 770548.625988000 -60.7194766480657
 118127.972738181 -791228.488031893 -1806.04084456344
 137971.676620869 -788010.043295396 -1997.02679366483
 165452.756194548 -782700.630137289 -2260.32084421043
 198926.946209953 -774867.892739031 -2796.22491152737
 238622.411297476 -763578.049195322 -2812.04794490454
 286555.981835704 -746915.032658321 -1898.22632907538
 345891.015501011 -721354.250036336 2729.71613820237
 422309.029545883 -679276.970836959 15423.3736445640
 522522.722063286 -604089.001254465 45238.0756770064
 647300.560315444 -459189.279197215 100733.264047455
 759827.263424241 -185469.739983899 168117.534206084
 756019.938992409 198443.904585903 170451.953871514
 636759.023072976 472561.820165942 105939.948350948
 506357.597222490 617255.535825291 50966.5304695152
 401570.037227899 691596.126762472 20887.8588641724
 321753.629598039 732407.783056518 7310.34600576565
 260199.449520162 756499.748450806 2092.14322475792
 211694.807578720 771482.476135684 312.185461109088
 173767.111338364 780900.111600262 -81.9745033602940
 147434.398418087 786297.069596167 -128.481817508813
 62450.9441260968 -797556.432988562 -1901.51947617502
 73125.6949421735 -796648.342322299 -2012.81254882683
 88179.2390524934 -795121.565954690 -2473.28807166623
 106670.465216907 -792851.714526403 -2751.47650396554
 129377.956848033 -789463.926376096 -2837.82181741241
 157696.513052101 -784303.017222000 -766.125104613038
 195258.993250727 -775777.145044195 6614.13499949514
 248558.851799169 -759853.734778839 28996.5331536056
 330767.794092909 -723307.720042716 86131.3445704733
 460762.604673174 -618493.116436539 212518.439330355
 621112.968741839 -299873.525527678 405332.639628614
 617597.062114250 301883.654565941 409194.486734313
 452634.105256790 621937.817448537 219808.366505317
 319729.389764141 727334.901893867 93579.1526360957
 235511.422856401 763729.961529382 35368.2847545978
 180782.062943082 779213.213197662 12025.5601207933
 142496.848808323 787199.392073989 3430.04344579068
 114150.852702138 791813.802961899 695.892513787208
 92753.0318355232 794604.851449883 -71.6772429045257
 78242.4237458767 796164.617246136 -159.284916688775
 7027.94481065443 -799966.834525270 -1916.15535834021
 8244.55376735190 -799954.660403229 -2137.43592478097
 9821.19962963864 -799936.065383349 -2415.64418745248
 11778.7961188648 -799907.858996789 -2945.68789327967
 13873.9310292353 -799875.357050235 -2631.96154133860
 16480.9770167604 -799830.116610319 -402.442167060438
 19653.7317736644 -799707.808040263 9008.47305632360
 24475.1489872976 -798753.173408344 37340.7960835066
 32825.1586267730 -790844.161915704 116137.937492349
 49541.0780329631 -734329.757824085 313537.060586706
 77212.4780766545 -415045.575781001 679540.582492231
 76999.4449820610 406440.458318847 684746.113033159
 48891.0034740283 730550.171984661 322344.716092081
 31732.1007820079 789638.920118415 124352.119459959
 22931.4628670680 798440.130545626 44356.5772469176
 17783.7536227064 799670.639958004 14512.2602044746
 14313.5820728637 799861.165746420 4151.73445948609
 11643.6889472712 799914.876002502 784.638515257896
 9575.85750036283 799942.685358689 -55.6260988730215
 8105.09241888585 799958.911634523 -217.194358453590
 -48057.8915482237 -798552.834050302 -1951.99645733786
 -56379.9804886931 -798008.168892217 -2064.02068424423
 -68130.5334787552 -797089.535597772 -2550.02910365112
 -83065.2841122438 -795670.869791303 -2832.93856337876
 -101615.434446447 -793514.723101292 -2947.49109216561
 -125658.997516964 -790069.099725633 -796.242274429360
 -158081.019517377 -784195.563811885 6907.16773402463
 -205483.209972029 -772551.601145140 30670.4089909458
 -280458.472339520 -743487.660703241 92569.6693037517
 -404316.474241532 -649416.468282950 234065.032373047
 -566892.747778924 -326416.860235422 460526.487696104
 -562991.406693509 327718.187050870 464372.120034521
 -396386.324445001 651637.885542320 241341.972973864
 -270795.085251826 746096.513090146 100050.062259752
 -194873.610057155 775017.169288296 37049.4724881454
 -147019.893197507 786277.749879702 12347.1068799892
 -114458.191461273 791762.522391701 3380.90865688481
 -90844.3110901745 794825.118702229 584.655915441967
 -73429.8279069308 796622.886177964 -193.884112545160
 -61767.4972199520 797611.873913927 -273.639721699040
 -102805.729537877 -793364.596618121 -1897.05222652938
 -120165.164815528 -790920.904579303 -2110.89182894538
 -144589.984182597 -786821.493413381 -2382.01108591267
 -174616.674327726 -780704.867697666 -2987.74160448006
 -211205.479186156 -771610.794108406 -3004.65923879169
 -256134.333982649 -757885.753541894 -2094.64400275538
 -313404.126403278 -736049.907698391 2896.01978401820
 -388873.184904793 -698924.814430439 16785.4054279137
 -491157.544131210 -629468.424669001 50336.5591565763
 -623512.791741143 -487909.270490116 114788.249855851
 -748753.565083407 -202127.206386729 196246.506244531
 -744387.946347693 215507.547147603 198602.825898038
 -612248.258507077 500730.978966503 120085.622196412
 -475041.652012527 641239.913290362 56096.3675880967
 -369361.707971553 709276.805367841 22323.5761366114
 -291597.704239959 744926.266601842 7458.96833538843
 -233184.497147870 765258.988226768 1916.04489509093
 -188276.339770802 777529.431451434 55.7612707462229
 -153760.735287152 785084.415028995 -312.350019117068
 -130147.638559347 789342.425529279 -356.983166523536
 -157277.462935974 -784385.296679333 -1872.43309557390
 -183057.160741131 -778772.269625696 -1956.51819252333
 -218494.453642577 -769580.642068081 -2410.20362486721
 -261134.556708938 -756175.391372985 -2742.40302275483
 -310748.109830218 -737173.546443900 -3282.47776369432
 -368767.524842577 -709931.386847233 -2817.55046869704
 -436975.162836487 -670113.497219029 -779.685132839671
 -518030.760277821 -609596.753965894 5994.07709565383
 -612358.461650732 -514390.772379926 20475.5399228754
 -712066.748162091 -361810.128253395 45325.2386108146
 -786040.863533399 -130513.542200713 71456.1135095686
 -782038.744544831 151940.934873860 73002.4269487112
 -700552.128512758 383212.054716536 48736.3966269043
 -594027.841409036 535268.324271261 24874.5786448099
 -493799.858395621 629332.012234591 10144.8620111294
 -408098.065549776 688073.769458899 3233.67857880999
 -336697.551070133 725695.927851620 423.559856979207
 -277587.732437259 750296.574479923 -318.000053971662
 -229955.207037806 766237.810048874 -470.327232642161
 -196290.780290664 775544.828140639 -386.156948472113
 -211897.896743196 -771424.739481391 -1775.57649209019
 -245092.293381131 -761528.735081894 -1937.36154276505
 -289829.418006246 -745650.262291402 -2143.54914202791
 -341581.952672693 -723404.719169856 -2716.96357961310
 -399293.267529206 -693221.385431529 -2999.54767297810
 -462492.427313918 -652755.362874237 -3345.28267909935
 -531486.988298451 -597925.972776559 -2472.31645341588
 -605515.853043042 -522829.360779975 -105.924312662082
 -681740.013522441 -418567.794172500 5617.44105341103
 -750920.347258364 -275533.023022744 14148.6853568299
 -794552.945819476 -90410.0879898626 22619.2899813101
 -791128.841788116 116480.850193594 23395.8806026266
 -740464.280620130 302386.714245979 16580.8375311649
 -663878.615104697 446309.799071648 8529.22383898164
 -580196.251217405 550782.734785882 3269.42426957371
 -499225.834931466 625118.633348950 509.879320815036
 -424703.509222631 677957.806750085 -376.192235490526
 -358300.297745199 715276.530242812 -617.996364042655
 -301704.331124139 740927.981267541 -472.393629600678
 -260246.724822187 756486.276598772 -394.381860406755
 -267240.544140634 -754042.105597518 -1730.47781832713
 -306866.774644618 -738802.875647282 -1758.85033938432
 -358613.120122217 -715116.961231482 -2088.50072039120
 -416223.885486387 -683192.695887188 -2327.53883136529
 -476923.940811471 -642289.029109718 -2890.98013686530
 -539517.174874615 -590687.700895666 -3042.70042989868
 -602702.497650381 -526060.337228324 -3197.01754986991
 -665062.035461593 -444620.475075518 -2263.21260650891
 -723088.544145381 -342261.041217489 -580.508771644555
 -770453.718136134 -215395.145363574 2449.40074562001
 -797254.785533487 -66030.2243894054 4981.60727478167
 -794436.732292938 94010.0923157169 5690.42410634876
 -761594.554770482 244865.276199391 3838.05364029618
 -707212.761808706 373961.491252432 1706.63269611717
 -641181.310597291 478420.867658502 18.1555850119456
 -570438.470373221 560891.789725463 -593.074047923715
 -499425.176857845 624959.069536576 -808.779628562886
 -431231.735600727 673824.029331567 -606.387792724819
 -369690.713958187 709456.519470252 -472.222662105142
 -322657.028693373 732046.674238869 -329.500493043236
 -324034.811323719 -731436.056644688 -1654.11319761595
 -368770.617167077 -709933.267862600 -1728.32177108992
 -425263.502072157 -677604.341395550 -1819.43046775454
 -485028.753912860 -636193.587493095 -2197.06859321312
 -544647.493556086 -585963.678398970 -2382.30145462573
 -602121.852769045 -526726.890104161 -2838.60162257780
 -656434.894079971 -457258.289963427 -2843.60579908560
 -706092.168646783 -376065.712679053 -2903.29517616465
 -748998.340663993 -281063.389628782 -2203.79058988335
 -781361.873391443 -171672.545560570 -1469.66355625997
 -798447.356075351 -49816.2132289804 -405.556170010255
 -796226.325232663 77611.8968013410 -180.225936652497
 -774242.421979850 201366.815316004 -278.740499833891
 -735782.197835459 314044.402838436 -818.776082131622
 -685289.349227464 412768.240988102 -941.842336956044
 -626736.251860380 497192.742734362 -1023.31631655076
 -563139.191998492 568219.743672396 -757.189648736914
 -497644.275385564 626378.342761097 -588.978640367783
 -434756.030813506 671555.711537384 -346.370907350131
 -384440.502107967 701573.541419186 -257.525757120166
 -382645.777389564 -702552.116082384 -1653.24955856108
 -431012.583872748 -673962.581065324 -1609.92767045302
 -489400.484145737 -632838.095370081 -1763.84984774955
 -547944.087476670 -582884.106328464 -1842.71241044631
 -602775.689869693 -525981.719263840 -2167.64904246617
 -652593.683011551 -462727.143096449 -2252.98362593085
 -696733.467838504 -393135.969705497 -2565.95351680282
 -734828.522209214 -316260.892780759 -2467.92328481821
 -765781.419359055 -231457.406345071 -2507.35167927856
 -787945.270021254 -138340.018870546 -2071.38360278229
 -799067.934522045 -38560.6289601902 -1874.54337562504
 -797382.016318296 64650.9377011026 -1475.23101161111
 -782477.436462036 166513.960640969 -1470.48952981053
 -755388.146182691 263414.473993492 -1250.39889956307
 -717848.546820958 353117.585013162 -1197.90713818417
 -671394.837853625 435003.665391536 -884.759534825149
 -617514.616799075 508601.221386505 -704.019635292978
 -558114.070330791 573156.624132244 -410.745816947649
 -497397.402863629 626574.618452617 -266.712343229144
 -446176.823669531 664022.755842455 -147.456978160947
 -442555.546624876 -666439.629313815 -1675.89725937432
 -492592.179776670 -630357.252973772 -1636.47371758933
 -549859.192025317 -581078.561892181 -1604.32371416957
 -603777.484366568 -524833.021195094 -1746.20594706019
 -651412.267973321 -464390.906083997 -1772.98627691600
 -692232.263848385 -401011.844940872 -1998.27537091222
 -726656.139216064 -334614.520798622 -1994.44486360514
 -754901.851933008 -264798.914583481 -2174.57663118082
 -776924.569642171 -190746.128811752 -2031.60765382139
 -792058.132689327 -112426.467512879 -2050.32760131283
 -799423.351021479 -30318.4369738375 -1760.17642647796
 -798188.747918422 53776.2497677948 -1684.53475280089
 -788023.342132300 137903.199884716 -1385.53823368613
 -769124.498512898 220104.240335706 -1276.39081980136
 -741834.585613650 299467.059329834 -963.308759487884
 -706431.723070094 375437.872937288 -790.066163292955
 -663006.778252334 447684.900048437 -492.199230259538
 -612220.018872276 514962.662007003 -324.392803806331
 -556895.079787761 574341.233324459 -133.459816534291
 -507409.695418617 618494.460619937 -56.3705722734158
 -501015.916202889 -623682.466008684 -1798.13923416250
 -550502.991467968 -580468.508627522 -1663.39308657788
 -603458.664182520 -525199.947137393 -1629.76990025046
 -650414.073182700 -465788.603726591 -1584.31193972436
 -689706.076367230 -405342.739031024 -1670.96886476135
 -721918.894127612 -344717.793384229 -1659.28474763744
 -747965.023428139 -283804.775213604 -1781.37421651628
 -768633.841564154 -221808.518211269 -1731.71916066388
 -784215.574735136 -158122.407858457 -1799.02081219162
 -794663.681712371 -92232.8729482462 -1652.30598000157
 -799626.374538873 -24393.5792230669 -1616.92130484856
 -798739.781298894 44864.6213190187 -1388.35315921092
 -791755.599949242 114548.832876425 -1278.60692333054
 -778542.754531004 184038.449073130 -1014.21399783893
 -758964.032479093 252928.585995504 -853.105731341436
 -732646.025149195 321293.415120869 -585.860951203379
 -699061.401686865 388989.701007012 -411.317483870552
 -657877.071066778 455189.764012218 -195.200151936191
 -610531.156485929 516963.928024436 -63.8866166933741
 -565437.406261534 565933.333815599 35.7293981283732
 -549831.381807371 -581103.729381009 -1976.68391030078
 -596388.162932180 -533214.695149242 -1802.21843299225
 -643311.683865938 -475549.455725298 -1671.09573193738
 -683197.696158919 -416219.010561840 -1625.79521080474
 -715442.325841872 -357966.119845406 -1592.30549767370
 -741068.040436164 -301356.145364738 -1622.68142620523
 -761278.110106426 -245872.002714985 -1611.63076095442
 -776935.509809966 -190705.330204808 -1640.31332493096
 -788522.681111288 -135016.539194633 -1586.03813676394
 -796154.634537482 -78328.7393871126 -1551.28672874526
 -799737.073326579 -20459.6701060086 -1419.66411200660
 -799078.507453605 38364.4357413297 -1307.28572620896
 -793990.686463431 97864.9448907932 -1114.61690797409
 -784281.038984557 157804.793453395 -948.183756141805
 -769644.754792669 218280.604650750 -727.360595048882
 -749568.772667019 279546.712385809 -539.107359206911
 -723306.761601504 341799.971660149 -328.625422026653
 -690246.771573459 404424.738743010 -158.193128641259
 -651152.592406259 464758.325793098 -2.93369857110937
 -612507.797659934 514620.432519822 90.7683309358172
# End: Data Text
# End: Segment
