# OOMMF OVF 2.0
#
# Segment count: 1
#
# Begin: Segment
# Begin: Header
#
# Title: Oxs_TimeDriver::Magnetization
# Desc: Oxs vector field output
# Desc:  MIF source file: C:/Users/Victor H. González/Documents/GitHub/Intro-to-magnetism-in-python/vortex_dynamics/drive-2/vortex_dynamics.mif
# Desc:  Iteration: 2091, State id: 13183
# Desc:  Stage: 298, Stage iteration: 6
# Desc:  Stage simulation time: 1e-11 s
# Desc:  Total simulation time: 2.99e-09 s
# meshunit: m
# meshtype: rectangular
# xbase: -4.7499999999999995e-08
# ybase: -4.7499999999999995e-08
# zbase: 2.5000000000000001e-09
# xnodes: 20
# ynodes: 20
# znodes: 1
# xstepsize: 5.0000000000000001e-09
# ystepsize: 5.0000000000000001e-09
# zstepsize: 5.0000000000000001e-09
# xmin: -4.9999999999999998e-08
# ymin: -4.9999999999999998e-08
# zmin: 0
# xmax: 4.9999999999999998e-08
# ymax: 4.9999999999999998e-08
# zmax: 5.0000000000000001e-09
# valuedim: 3
# valuelabels: Magnetization_x Magnetization_y Magnetization_z
# valueunits: A/m A/m A/m
#
# End: Header
#
# Begin: Data Text
 576809.870887543 -554337.750639190 176.246928419166
 620597.135263621 -504835.803566977 84.4953961388267
 664919.254314869 -444839.728169420 -38.5164390439453
 702639.901974540 -382488.075817934 -200.025756000694
 733029.086226154 -320418.842568712 -352.240509986555
 756854.263927364 -259174.335084540 -535.918326995337
 775024.619437322 -198333.998305973 -681.455795114575
 788109.896223849 -137412.033697027 -851.157611770985
 796376.555666011 -76049.0444312876 -961.471075381775
 799869.249170518 -14421.6835527799 -1095.11410118627
 798611.655276118 47096.4804265702 -1159.99507269018
 792685.676892599 107925.323625347 -1241.84124785019
 782186.742908038 167876.004370426 -1243.53348801589
 767102.676752882 227050.442998765 -1256.84232449318
 747099.690813991 286077.954513991 -1206.61788872242
 721481.147314518 345634.989462424 -1186.64612938563
 689182.712881622 406233.768730297 -1146.04027273217
 649307.634189873 467330.985142051 -1160.39170604341
 602548.870869250 526244.628293550 -1203.91294320091
 556340.931184119 574876.558392692 -1308.01367044618
 527909.133258838 -601092.286721569 99.3264172145339
 576286.823663392 -554881.515298902 29.1813928011400
 627843.953207956 -495794.268928167 -115.404463916257
 673423.058229665 -431857.991568262 -244.465198790666
 711346.979701583 -366039.979707266 -455.768954083218
 742007.861766699 -299038.429825997 -592.084127144950
 765970.386541893 -230843.464639862 -813.494885027784
 783640.987619958 -160953.340269582 -908.172936152699
 794975.508195512 -89513.8988377532 -1096.94309389144
 799820.481174885 -16908.0659878878 -1146.82070303100
 798067.148981720 55561.7033547102 -1312.56867001422
 789871.047152514 126893.575976021 -1322.59071838457
 775591.620708098 196101.056527061 -1418.98426867188
 755445.158887566 263250.474101789 -1341.56569837800
 729405.172301980 328582.236750343 -1344.73464281744
 696904.612364072 392838.977033650 -1224.49534056510
 657239.239143693 456108.690563398 -1202.04923416773
 609938.257797901 517662.091027793 -1131.89539867557
 556756.605793776 574474.307322887 -1162.81162827712
 507169.875612967 618689.940496707 -1214.41298888170
 468367.270600531 -648561.562096462 1.09794940948207
 518969.772340254 -608827.042108793 -90.5216148507170
 576634.801299341 -554519.854210977 -192.915285308567
 630699.276121844 -492156.737729153 -410.618047570947
 678194.578022106 -424325.126324102 -549.100583557927
 718334.912007492 -352128.242154641 -809.486424355980
 751101.584419263 -275400.825419876 -891.762817848387
 776067.242957253 -194212.381243895 -1088.75171802139
 792583.331910876 -108676.134552076 -1076.91962306615
 799735.417435802 -20534.1548483718 -1269.08764348907
 797102.941159671 68008.5676217601 -1317.54492851739
 785049.133548684 153933.023250940 -1575.52127463577
 764492.402957404 235688.081649624 -1579.23675698291
 736496.300303569 312362.561024619 -1682.29286871573
 701546.956025720 384486.090385356 -1521.44379810086
 659850.477725059 452321.955832495 -1481.66051317833
 611227.197196988 516139.179562171 -1288.69220710421
 556403.293201376 574816.349953756 -1240.62101558522
 498373.330623486 625797.640044323 -1156.30368356042
 447819.866796248 662914.726660143 -1196.69532372734
 406208.952448024 -689198.281221356 -126.935451215414
 456481.768471649 -656981.247845944 -187.167794859507
 517105.698784881 -610410.972308860 -375.724836789284
 577829.181895157 -553274.954472163 -511.179224564855
 634523.064537751 -487216.440707561 -787.701642319473
 685517.791210880 -412388.928182747 -854.310038499709
 729378.726859792 -328642.202022984 -987.853163565570
 764620.903575197 -235274.897469544 -772.293043215567
 788830.389306807 -133214.547990807 -707.891006739239
 799611.690205221 -24916.4632256396 -561.023597292879
 795569.765734060 84070.4021865041 -956.726738820527
 777498.943326261 188397.760047966 -1295.04264735348
 747890.781703341 284000.235829501 -1801.30284883537
 709246.784612611 370088.569910634 -1857.13170620319
 663597.148243625 446805.399778542 -1938.96149171712
 611913.149174099 515324.622004439 -1682.80237114656
 555291.544396377 575889.591632585 -1574.47487752626
 495181.105927719 628326.275942900 -1327.89002842734
 435581.180478533 671019.696867467 -1265.55474856585
 386420.520923395 700483.894297447 -1222.63615822555
 344145.051950932 -722193.967154871 -238.794471485230
 391624.479047488 -697588.805701039 -354.360527650687
 451854.426523801 -660172.217189849 -469.980305685518
 515860.001698514 -611463.750811636 -734.908821054979
 579946.500986871 -551054.834581772 -790.744675803659
 641535.645972948 -477944.899080634 -829.692035694275
 698504.043874545 -389989.774750107 -276.190640985088
 747290.465165781 -285581.298729119 531.496473127264
 782957.968649113 -164236.532621897 1783.44643613246
 799409.448496529 -30651.2019625509 2244.43149282477
 793032.175547418 105342.506090969 1710.25056757169
 765743.450909849 231596.525169605 130.069364169300
 723242.668076960 341934.029220499 -1078.30142091537
 671397.716671584 434995.609830967 -1981.28139615980
 613921.773335374 512928.566510643 -2083.71833221447
 553332.953965829 577770.071395675 -2094.43426388813
 491031.976673946 631573.080448504 -1744.11480896223
 429217.534891133 675107.262933543 -1578.37776201043
 371263.434850010 708633.657891304 -1341.95639422945
 325692.486709067 730700.121298259 -1317.89072926828
 282633.558553583 -748410.404610566 -371.281548505628
 325271.879226504 -730888.507252413 -441.079130172735
 381544.133805136 -703152.640903554 -661.475053660104
 445002.755257535 -664809.766878884 -722.271171942433
 512772.344329797 -614055.374987820 -720.651851284846
 583323.658479811 -547479.224135573 92.7234529773066
 654046.855152799 -460672.666195914 1845.50391049631
 720408.941617375 -347825.161606667 5349.18601557049
 773089.945801087 -205527.324224359 9510.76750046977
 798997.036477020 -38132.5429469266 12232.9419740260
 788577.705087309 134312.408240800 10265.4776698084
 746504.951835392 287570.847719264 5776.19487760173
 686257.433459354 411155.302458254 1432.57887798060
 618727.761990793 507124.254982155 -972.908350351399
 550208.014916283 580746.492101372 -2156.90376113068
 483166.914783313 637608.743163408 -2196.15581258821
 419228.326149263 681353.958581068 -2096.11068272184
 359420.355025459 714712.617922970 -1697.69698932871
 306373.347638234 739008.132936777 -1533.39826531732
 266116.272699787 754440.289974429 -1406.50903788395
 221262.060995570 -768793.138144146 -459.463241041615
 257066.350769511 -757572.797548271 -589.675278234404
 306169.604831678 -739093.861881352 -660.610718870071
 364242.840114402 -712268.669454604 -704.229198179478
 430764.357435826 -674123.181986829 62.2161711185456
 505656.793784912 -619924.460920286 2206.72876806935
 588798.865416036 -541531.935889945 7684.95257477992
 676081.331401673 -427320.500982577 17641.5070258051
 754664.941197773 -263602.561603216 31535.9484269210
 797404.408647685 -49572.8678192285 41094.2799597904
 779299.774316150 177301.382852472 35441.2385421152
 712905.370279454 362390.365511056 20956.0495198520
 628645.392429503 494698.424377176 8856.60747107012
 545137.659084995 585510.123311519 1681.70956489297
 468573.938637914 648411.027635420 -1266.20303675630
 400279.479772952 692655.043331844 -2308.46694923703
 339452.734628676 724408.147134873 -2162.71073774608
 286069.084626004 747101.467612064 -1968.73389273188
 240634.943178256 762949.672509723 -1619.05494179200
 207337.207134270 772663.516990032 -1540.14621274238
 159317.173761776 -783975.591294980 -557.133957675937
 186620.017236522 -777928.400940914 -610.062417032618
 225034.183530008 -767697.272212880 -717.272533181816
 272754.253864284 -752067.182916027 -263.400246237112
 330665.207503741 -728463.207599692 1369.56930295777
 401922.346712098 -691674.683647967 6675.26882793540
 490199.676117487 -631926.494568867 19317.9449273121
 597827.383024364 -529662.843609523 45383.8319857857
 713419.595072776 -351626.780513086 85971.4405613870
 787966.971174798 -69174.4458535178 119678.520957077
 754399.741455186 246474.342956877 100654.996678375
 647901.634203463 465788.904811605 57132.9025246282
 535883.157483700 593484.438629052 24606.1502567942
 441176.447630113 667310.786294464 7723.76537308845
 364908.659675348 711928.006773044 428.095901140574
 302788.234319925 740483.648337668 -1803.24761449936
 251565.416967452 759413.838704500 -2337.21417236803
 208682.716906936 772300.122693230 -2011.00779757475
 173754.453378877 780900.845282500 -1805.48278444089
 148676.002555499 786061.581800369 -1623.53984203528
 96433.6891092426 -794166.348035248 -596.031155232850
 113567.486786633 -791897.687043144 -692.243227920869
 138346.532248210 -787946.650655891 -559.227198823081
 170011.079351694 -781726.425451267 169.259732856869
 210795.304600337 -771721.146418711 3436.81955320951
 264861.644012681 -754772.731412095 12900.9087906929
 340693.503623484 -722832.369270704 37964.4902936476
 450787.745905104 -653996.059085040 95286.7401217626
 601667.281625545 -486694.175434901 202793.643438517
 727948.690926920 -107189.243442837 314008.231528945
 666553.580044740 364233.333697070 251078.480864967
 509919.177700589 603165.291380370 127177.291554698
 383446.055117026 700230.313267695 51445.4195844093
 296489.375101324 742842.318870210 16713.4600713522
 235460.184631868 764557.051376248 3319.13301701567
 190501.585218047 776986.199220332 -1261.84410836180
 155445.490110396 784749.678811626 -2154.34662689879
 127569.209473141 789760.278895439 -2190.58745465275
 105315.478635295 793035.489550352 -1833.65030808500
 89736.2645288484 794949.314516201 -1729.21329832887
 32623.9427923599 -799334.258302422 -649.508118598084
 38552.2293114808 -799070.264985806 -661.234171253365
 47092.3371774958 -798612.543831875 -562.684230126667
 58380.1696979619 -797866.720151891 672.800194127220
 73173.2095517926 -796631.181557085 4943.88256854801
 94166.6458207140 -794222.702986126 18518.6629184949
 126542.111980548 -787934.885523215 56086.6300558456
 182917.656587070 -763552.695488316 153389.739295765
 284921.175060024 -647266.548514663 373986.549459112
 404808.355974345 -168642.939896071 669096.221597879
 341411.847024188 526073.731218006 496673.313188758
 218535.681720626 738486.253105290 216518.382105101
 146750.229023512 782399.877774764 79465.7255650623
 106934.126308034 792419.000659787 25243.2173877021
 82554.3509789187 795709.596673337 5569.28149821584
 65650.9099297879 797301.480929569 -553.654140562467
 53203.7522063781 798225.861504424 -2198.81256212175
 43340.9688142835 798822.269876119 -2131.09647914296
 35733.4841225899 799199.159184108 -1955.01198890214
 30353.7414794696 799422.015711236 -1758.17359247692
 -31521.0443441891 -799378.506012763 -654.131680346307
 -37333.4623727197 -799128.070839238 -734.155312721469
 -45773.7754485576 -798689.231586018 -522.331045325620
 -57020.0476911559 -797965.177407143 538.337147691509
 -71889.2741355111 -796747.951360745 4963.29192408706
 -93135.3047422751 -794349.056101788 18313.7129158131
 -126055.758748700 -788023.736198779 55933.3252507507
 -183419.780047388 -763535.353874585 152875.595406789
 -287024.774694152 -646971.572094606 372886.797316836
 -408582.615897478 -168391.350831686 666861.754002622
 -343950.124217540 525838.950048766 495168.365974998
 -219253.055117177 738469.968345301 215847.639954377
 -146287.549508770 782507.396470420 79259.8721157464
 -105820.350012604 792576.311967283 24996.8644343318
 -81109.7593463502 795857.886443537 5606.38247031089
 -64093.1232621533 797428.073499976 -734.264679100732
 -51658.4039138387 798327.589708446 -2113.95727908047
 -41894.1777739988 798899.113139838 -2254.97073610295
 -34422.0249598534 799256.828724116 -1909.43330121232
 -29177.8684903714 799465.707285084 -1798.57318992278
 -95322.3793217643 -794300.438434684 -676.389610465102
 -112347.531833237 -792071.662880736 -716.206900625545
 -137025.594521073 -788177.304250792 -723.539979362664
 -168663.468653644 -782018.298011839 126.160171080810
 -209511.100265713 -772072.006109522 3149.00737825110
 -263811.663436937 -755144.073651542 12682.0449292943
 -340062.902598826 -723159.770958256 37378.7097646012
 -450793.190117767 -654114.898039333 94441.5157991461
 -602379.225519356 -486504.018235945 201129.582366642
 -729025.713535770 -106951.816645059 311581.157838506
 -667319.148034903 364186.023007239 249105.791406268
 -509973.213797273 603337.864204967 126137.793011724
 -382825.758572106 700620.034899683 50754.3620870086
 -295355.648824139 743299.398109052 16463.4588830544
 -234048.855743037 764991.693233011 2973.61898453049
 -188962.435289811 777361.921968224 -1280.75103499480
 -153920.576380303 785049.568418478 -2373.03449558148
 -126122.935380168 789992.603293176 -2166.08244549573
 -104004.283926482 793208.226672546 -1953.98667676855
 -88552.8707255673 795081.945355565 -1757.62791049622
 -158192.977557083 -784203.143338833 -641.739135462253
 -185388.861184739 -778222.578266487 -767.349260300218
 -223727.720080405 -768078.958509199 -787.885175195543
 -271418.903606706 -752549.988828219 -541.368249335767
 -329422.780616856 -729026.210784037 1189.79011924937
 -400873.528296334 -692287.671447816 6180.15150369739
 -489503.285847757 -632481.752149224 18798.0409217340
 -597551.908093191 -530057.632684065 44391.7015617889
 -713525.511238314 -351723.974485545 84685.2441939830
 -788238.877078156 -69085.7922472559 117926.358258609
 -754518.222739755 246688.003818617 99233.4637389428
 -647677.408503865 466236.395094608 56014.2696364207
 -535187.989635608 594135.490559268 24017.3813663043
 -440103.726484879 668025.073564527 7156.18775813128
 -363554.164236064 712620.732643370 247.130416051622
 -301317.285599463 741082.529220158 -2139.69241352899
 -250062.738081252 759909.861912621 -2372.50737575377
 -207255.268222485 772683.858636804 -2215.49005097949
 -172433.727160786 781193.474796063 -1834.30463441430
 -147481.002493567 786286.445294248 -1726.22421144242
 -220114.797262644 -769122.297182623 -606.632137845074
 -255835.280349119 -757989.336043598 -689.762909762339
 -304869.375220686 -739630.888376138 -901.672042937533
 -362964.792803533 -712920.639638422 -848.977404011900
 -429574.780841825 -674881.761337470 -340.409654047337
 -504691.588564046 -620711.587860225 1877.53261961932
 -588117.709292751 -542280.856878240 7002.30530947882
 -675749.159424240 -427874.290490139 16931.1864614839
 -754606.514331033 -263900.877207350 30419.3283679779
 -797462.147923495 -49540.3948652859 39998.3987909209
 -779283.789550378 177602.989981814 34263.0018171485
 -712617.170101036 363000.356708077 20186.8746219199
 -628024.349210849 495499.505964559 8102.86289943196
 -544160.295292806 586419.466515811 1335.03488994911
 -467352.700955415 649290.740605335 -1728.31532231274
 -398883.172449125 693459.654747721 -2433.51065201313
 -338016.961265977 725078.277445235 -2454.68400533941
 -284650.606066888 747642.922500500 -2023.09185773078
 -239315.376020036 763364.225472681 -1791.66650958619
 -206119.719796938 772989.010294978 -1628.21190990931
 -281463.468721254 -748851.153374782 -515.620653877904
 -324030.264625598 -731439.654883757 -647.201820505302
 -380286.439198219 -703833.496313195 -796.008468611446
 -443780.676824171 -665625.734689570 -1045.08203084874
 -511702.088150766 -614947.218286132 -944.300954592730
 -582454.671600219 -548403.488670825 -411.272110693563
 -653468.148216989 -461494.701436674 1421.20080745431
 -720097.927379412 -348479.416864628 4590.31649926913
 -773007.933486622 -205866.120407310 8824.69462278188
 -799009.607227299 -38163.3769124645 11278.4848767374
 -788528.337809966 134654.018808135 9558.01702611425
 -746269.993842712 288195.070089279 4969.69478282971
 -685728.386342080 412038.344764658 991.266002056291
 -617917.161072459 508110.266202382 -1529.52015264871
 -549120.079722279 581774.454508001 -2371.10263702059
 -481909.625586708 638558.155855603 -2567.94804640896
 -417854.825281532 682196.831585696 -2197.26270105734
 -358045.488506881 715401.757396033 -1937.44020172880
 -305041.969038711 739558.496287710 -1621.01623916301
 -264874.993076082 754876.693213986 -1554.37616536021
 -342945.559261889 -722764.247958423 -430.413340668366
 -390395.492354598 -698277.240249441 -505.271052021326
 -450636.553806839 -661003.904174784 -731.463457029903
 -514750.096628716 -612398.161738190 -910.780112806671
 -578990.547964632 -552058.481140081 -1174.20991395764
 -640818.310965318 -478905.701181308 -1105.30882455995
 -698019.174553793 -390856.182637883 -822.465187597265
 -747049.748608352 -286210.870686797 102.980115233738
 -782880.362968308 -164612.209258273 1076.03053870389
 -799410.202998221 -30665.6155394075 1716.78942583290
 -792995.190445470 105629.823415525 984.040425147127
 -765553.487128340 232223.523549020 -305.705931414498
 -722842.809386787 342776.178874091 -1662.56256894602
 -670728.661409915 436025.226681324 -2250.43568322989
 -613020.276660161 514003.743523952 -2508.39527665495
 -552207.158025702 578845.585288287 -2245.66636830359
 -489776.577976757 632546.238786743 -2039.47594360890
 -427880.834386942 675954.992248536 -1685.23547805586
 -369940.998959873 709324.527701426 -1540.02912991631
 -324418.040847518 731266.587121493 -1453.73049134485
 -404988.931453982 -689915.838413082 -318.286879191627
 -455267.483121236 -657823.188140707 -414.676803716076
 -515974.488209127 -611367.345040795 -544.917515957763
 -576830.320521089 -554315.905629758 -811.229559833731
 -633727.877145275 -488249.925229727 -994.103671474095
 -684926.316049993 -413369.511311602 -1260.43650877631
 -729013.148877422 -329451.369706370 -1274.26936809115
 -764429.428219440 -235893.989676990 -1294.18173801856
 -788775.885202213 -133534.439602589 -1075.34342738062
 -799609.411117002 -24969.3810840795 -1148.76516273617
 -795539.140352864 84354.7374630891 -1324.55054997515
 -777367.333850050 188935.570472940 -1838.06227597824
 -747581.558362608 284811.308856492 -2081.33216613399
 -708739.569853164 371056.551530760 -2292.96542757416
 -662852.839042529 447908.019931516 -2125.90081805625
 -610967.433457722 516444.337020964 -2010.47582980377
 -554153.284807418 576984.587779385 -1709.50349603791
 -493928.872256819 629310.587636344 -1566.34603650580
 -434266.544571812 671870.972211281 -1401.77228088233
 -385118.205819188 701200.394978602 -1404.85887658578
 -467134.827171817 -649449.767659456 -229.194758016856
 -517806.392549258 -609816.741731507 -285.200091487328
 -575600.985453880 -555592.753347761 -444.940417975830
 -629853.019169584 -493239.106007686 -598.788525489595
 -677539.328619962 -425370.093291435 -861.339912804556
 -717884.987640056 -353044.023121277 -1030.65968203693
 -750819.375048881 -276167.745161269 -1281.63323467621
 -775933.645651650 -194743.750122070 -1359.90225146058
 -792539.718490332 -108988.305907121 -1530.94440215049
 -799734.311504262 -20556.7161150916 -1566.02214788234
 -797083.608021828 68224.3093738135 -1779.16648202821
 -784950.886901756 154430.286516724 -1841.67274741144
 -764274.808921959 236389.655624493 -1986.74634431824
 -736106.515833255 313278.835889885 -1889.00272746910
 -700974.722302729 385526.922913646 -1852.13426821792
 -659065.023946350 453465.096666503 -1643.26377507838
 -610251.043260270 517292.244021769 -1548.70096385722
 -555246.681474020 575933.317608715 -1391.53882688227
 -497100.720305312 626808.585059310 -1368.05258862621
 -446493.313373583 663808.567088086 -1381.07680571958
 -526687.732175337 -602162.777760698 -147.836128964242
 -575196.028668798 -556012.123521576 -217.026892864686
 -626943.267071620 -496932.627584182 -321.738781016031
 -672718.469919986 -432954.508733481 -503.583025811903
 -710837.565740403 -367027.948839512 -663.251775769469
 -741661.850311931 -299894.815115748 -894.236307788092
 -765768.464615284 -231511.471620436 -1047.42965843245
 -783540.967735097 -161437.191161880 -1259.04349013934
 -794946.869260644 -89764.3224494552 -1357.00695985027
 -799818.947681006 -16950.8653995366 -1522.85674169238
 -798052.517276080 55764.8007262401 -1570.56336240108
 -789804.919737206 127300.286081069 -1681.04806082615
 -775431.068708837 196733.201420450 -1644.73096019476
 -755163.468559816 264055.682379792 -1652.98386233518
 -728962.868349570 329561.499959665 -1534.37671493671
 -696286.387621918 393932.811155188 -1485.49917217831
 -656416.919146085 457290.866214702 -1375.47641582460
 -608916.315697736 518863.251923688 -1358.77896337261
 -555547.224230345 575643.507427485 -1354.25497621849
 -505838.415250377 619778.529860632 -1439.29871146554
 -575617.565459274 -555575.743432527 -107.907989452623
 -619600.915860943 -506057.977719456 -168.079669937642
 -664138.971335972 -446003.749492865 -286.689907819536
 -702061.284992731 -383548.913161219 -428.167259668612
 -732621.335168969 -321349.668818195 -607.952033845162
 -756589.585873818 -259945.370433738 -776.490406415858
 -774869.600423035 -198937.594735821 -967.337051777059
 -788037.193442129 -137826.467360654 -1116.53335603932
 -796354.213939121 -76278.0587799402 -1274.24101706750
 -799868.336360243 -14448.5345827460 -1372.71144363394
 -798601.496244687 47259.6752405605 -1474.20890764608
 -792635.644271533 108288.827440157 -1505.08534257900
 -782068.988065373 168421.355870412 -1531.27175108038
 -766886.075626161 227779.559956928 -1489.65651558700
 -746758.079021899 286967.323529280 -1458.30105431135
 -720981.835949626 346674.553441583 -1395.07232280633
 -688499.067885982 407390.656621654 -1373.46915245874
 -648410.646404045 468574.175243964 -1369.64386911219
 -601427.947321450 527524.744240852 -1438.19134062046
 -555021.323690755 576150.072604746 -1556.94769006853
# End: Data Text
# End: Segment
