# OOMMF OVF 2.0
#
# Segment count: 1
#
# Begin: Segment
# Begin: Header
#
# Title: Oxs_TimeDriver::Magnetization
# Desc: Oxs vector field output
# Desc:  MIF source file: C:/Users/Victor H. González/Documents/GitHub/Intro-to-magnetism-in-python/vortex_dynamics/drive-2/vortex_dynamics.mif
# Desc:  Iteration: 3456, State id: 21763
# Desc:  Stage: 493, Stage iteration: 6
# Desc:  Stage simulation time: 1e-11 s
# Desc:  Total simulation time: 4.94e-09 s
# meshunit: m
# meshtype: rectangular
# xbase: -4.7499999999999995e-08
# ybase: -4.7499999999999995e-08
# zbase: 2.5000000000000001e-09
# xnodes: 20
# ynodes: 20
# znodes: 1
# xstepsize: 5.0000000000000001e-09
# ystepsize: 5.0000000000000001e-09
# zstepsize: 5.0000000000000001e-09
# xmin: -4.9999999999999998e-08
# ymin: -4.9999999999999998e-08
# zmin: 0
# xmax: 4.9999999999999998e-08
# ymax: 4.9999999999999998e-08
# zmax: 5.0000000000000001e-09
# valuedim: 3
# valuelabels: Magnetization_x Magnetization_y Magnetization_z
# valueunits: A/m A/m A/m
#
# End: Header
#
# Begin: Data Text
 565525.306470903 -565845.065888609 -699.392956045635
 610706.598825432 -516756.219994611 -677.678356493435
 656434.705466088 -457266.858702305 -705.260361323076
 695409.973790508 -395479.924690430 -772.993879774011
 726902.895188548 -334082.969692886 -866.214574825290
 751766.569053581 -273580.128296453 -969.048349609838
 770971.988320804 -213544.030875743 -1067.75559297826
 785167.535040897 -153331.743151958 -1148.24204030562
 794632.876586829 -92504.8318256910 -1203.13600294370
 799396.669453017 -31039.5749886587 -1228.67894413094
 799409.898345926 30697.0375609286 -1227.31884139666
 794671.702327761 92170.7693533048 -1197.82983657948
 785229.788530328 153012.673952222 -1140.53259770837
 771055.177940027 213243.513401488 -1056.67594991248
 751868.880083841 273298.871804030 -955.945665449692
 727023.875028337 333819.655519035 -850.134068681098
 695550.776894932 395232.269911713 -754.706096000754
 656597.865655874 457032.575732473 -683.765671952569
 610895.027859151 516533.482470543 -653.011347886780
 565738.838514240 565631.608271804 -671.059172124500
 516427.904099051 -610984.255310319 -677.960734106138
 565533.152223103 -565837.254191501 -674.911567976210
 618080.623116929 -507913.198560530 -725.296766668373
 664683.131317706 -445191.715304321 -819.491357965582
 703666.182750872 -380595.614736461 -938.773770628814
 735399.643638512 -314938.447431068 -1066.98924927375
 760577.030129159 -248034.644042161 -1181.77611513260
 779623.812362078 -179402.064177099 -1269.08116969919
 792564.277864498 -108812.355929309 -1317.82026114583
 799160.504820665 -36615.5623448447 -1337.20938954803
 799178.986418875 36210.0417978579 -1334.36857632545
 792618.004559643 108420.359095803 -1313.23319602707
 779708.492524587 179033.740567393 -1259.53304153086
 760687.598018938 247695.390357651 -1171.24538353153
 735531.880927418 314629.534929101 -1052.56338160238
 703817.483580685 380315.785581776 -923.603524160421
 664852.450783821 444938.846291634 -801.091390374656
 618267.688998317 507685.499984270 -705.582314169752
 565736.957272183 565633.512047764 -652.092726811994
 516644.125199782 610801.458559664 -652.777097777151
 456932.591007050 -656667.426232790 -706.116411667620
 507583.375558542 -618351.510060969 -725.852543177746
 565528.514945426 -565841.706424447 -813.667187391085
 620151.492468311 -505382.252854065 -951.256788658676
 668364.223954079 -439645.328975133 -1117.51895185196
 709511.834720023 -369582.631258015 -1278.69645724230
 743560.412609952 -295154.098158643 -1403.97274760985
 770284.130930051 -216009.781374567 -1460.13281812872
 789004.105890606 -132175.679544422 -1452.79893177865
 798749.092746239 -44697.5820126914 -1418.80205749357
 798776.845713357 44198.8809991210 -1417.62852891582
 789083.574510710 131700.519725276 -1444.14039930053
 770406.013448519 215574.743680676 -1450.63068018861
 743714.026886375 294766.884503516 -1389.24891341360
 709688.067231508 369244.158167926 -1264.47145711500
 668556.498892570 439352.931798082 -1099.59489710813
 620355.211233207 505132.200364812 -933.836392789017
 565739.873793034 565630.414292269 -793.491145134700
 507798.242691132 618175.094531382 -705.138933054169
 457146.754899097 656518.375897010 -683.077431824604
 395142.583135670 -695601.709922188 -774.691034151930
 444843.006733473 -664916.555310861 -820.873841283150
 505027.346853778 -620440.547059462 -952.099989791347
 565511.670346614 -565857.967214057 -1145.26946912230
 622370.558337283 -502646.049712926 -1355.29440721939
 673886.233140442 -431132.249724032 -1525.78887168895
 718954.980329059 -350857.891018503 -1573.71220045905
 756187.387138485 -261110.216965914 -1445.72773487438
 783444.702237222 -161904.414173201 -1165.85061838402
 798094.853336950 -55170.3378723272 -915.912728444980
 798137.645889853 54547.8726882888 -909.834373777082
 783564.405467049 161324.164211616 -1156.08239109382
 756363.923844902 260598.493002312 -1428.33849848349
 719166.934789718 350423.306976589 -1557.50850789729
 674116.620658755 430771.998854369 -1505.57451925007
 622607.649024344 502352.392942890 -1337.41576651067
 565747.593370265 565622.131481807 -1124.71050965773
 505256.414354490 620254.048725889 -933.162786672211
 445061.092611326 664770.624994044 -799.992901589739
 395348.857195831 695484.517128812 -753.357852893228
 333746.218080859 -727057.567688669 -869.012865604904
 380231.576027703 -703862.957263118 -941.267395280354
 439257.163427818 -668619.391714487 -1119.55379397513
 502239.413270713 -622698.748546063 -1356.58271334778
 565481.487379422 -565887.097458024 -1574.91640709669
 626820.558260872 -497084.836908290 -1628.69806529445
 684306.414876886 -414394.697136497 -1328.73755674841
 735111.240199417 -315612.432616570 -506.863222347973
 774701.096545411 -199593.789197203 728.234330281724
 797028.852168996 -68861.1269135612 1775.95336875213
 797096.487761716 68073.5576799906 1783.23939104906
 774883.529919137 198884.261909811 751.947236956612
 735365.406110686 315019.820056584 -482.148507537608
 684592.323748771 413922.285802357 -1300.60770833205
 627111.037155966 496718.399745386 -1605.74952984796
 565760.873572759 565607.841132370 -1550.47856080642
 502499.428916113 622488.986272343 -1336.37891778803
 439493.840656395 668463.879727054 -1097.96418309744
 380444.109562104 703748.129740497 -921.621533356245
 333938.670545021 726969.218981020 -847.920249500212
 273246.028907759 -751888.063839936 -973.211781897345
 314567.407252621 -735558.426945856 -1070.90769996106
 369164.400964329 -709729.526370773 -1282.36428733173
 430674.576259720 -674178.812621056 -1529.04426750755
 496592.681573957 -627210.529534514 -1631.02673805597
 565434.381133962 -565934.956600789 -1259.17787293839
 635405.054886928 -486066.253242425 116.974405925955
 702864.363599273 -382063.631111791 3011.33921406791
 760240.966943587 -248959.455604830 7270.60146248251
 795100.514914301 -87717.0747770757 10994.8158495544
 795211.642641384 86700.7002132597 11019.6184199865
 760523.417246517 248093.882787983 7318.27458237242
 703226.188484366 381396.821021457 3064.75846965133
 635778.054924843 485578.252848277 158.860938070628
 565783.275246233 565586.237078932 -1222.24324093486
 496903.706823025 626964.220271593 -1603.94662342212
 430944.815750414 674006.162309473 -1502.97927374165
 369395.844582361 709609.130814707 -1261.53465286417
 314764.858081931 735473.985112690 -1049.44705419826
 273418.419670591 751825.418718398 -952.656152136510
 213217.678103382 -771062.299190406 -1073.55084086252
 247660.239390134 -760699.017846816 -1187.46457241442
 294720.339767833 -743732.434195215 -1409.84154843458
 350353.054940944 -719201.112714486 -1579.98854227607
 413825.483604459 -684650.776536522 -1335.40535916037
 485435.853191087 -635886.798185490 111.040742263791
 565350.286237460 -566005.247250151 4136.89938448233
 651358.944869664 -464301.030802965 12493.1074429848
 734099.149511006 -316933.811502710 25522.4962255440
 790621.462691800 -116076.355584377 37999.7684904500
 790815.637926300 114724.024222238 38066.0620169080
 734544.226726127 315890.683441241 25648.6860938853
 651862.185217485 463591.287388046 12601.9737096722
 565812.116270308 565542.979014201 4217.57862515122
 485826.878856089 635588.087724718 162.860021253125
 414146.217032327 684456.888398643 -1295.70114649410
 350613.160740213 719074.405651730 -1552.62756920551
 294930.896656447 743649.009357981 -1384.58597328872
 247832.044120639 760643.094129521 -1166.73049764768
 213363.169946492 771022.081906440 -1052.10410305449
 153017.441970369 -785228.836910397 -1155.91400594309
 179037.028956463 -779707.709215262 -1276.89182419458
 215568.786197415 -770407.645862501 -1468.88187820308
 260582.781921243 -756369.282997176 -1456.53854207695
 314975.915473271 -735384.185852876 -521.410851959151
 381313.509558644 -703271.682084295 2991.42213625958
 463432.419307668 -651977.662046300 12470.8029927252
 564728.642647008 -565658.932431145 33339.6510918342
 680310.393259965 -415099.827691152 69784.6822250302
 775259.385822303 -163807.434000739 110181.710190568
 775622.965319804 161928.521891999 110400.042873116
 681009.699162986 413896.169393172 70112.4140762536
 565386.158745220 564987.320274994 33583.0229104965
 463951.126261475 651605.882794647 12614.5133920304
 381704.342445331 703059.262231604 3077.13319985519
 315269.446332810 735258.426219034 -472.104769429879
 260805.493657045 756292.587181160 -1420.22995766882
 215740.219864885 770359.703645754 -1443.79066262122
 179171.768098542 779676.796232700 -1253.36856330453
 153128.752582005 785207.168867061 -1134.50097131418
 92211.2756169177 -794666.980328321 -1212.85818111486
 108464.258928637 -792611.973713503 -1328.02900798090
 131752.457218583 -789074.865671606 -1465.05365210524
 161375.853498644 -783553.721647217 -1182.87800758561
 198937.251363113 -774869.975295924 701.002841444983
 248125.152019458 -760514.127575958 7222.92826356596
 315874.678311693 -734558.349767805 25440.4871785873
 413762.947007587 -681135.635759884 69674.0222864744
 553482.367304033 -555003.024016039 160090.325805701
 704417.468845441 -251119.826087744 284138.808562018
 705092.338650579 248399.381042420 284855.299185392
 554460.595221502 553783.427088025 160926.580244716
 414476.389905600 680651.052725388 70167.4186117880
 316342.559171988 734348.215511358 25692.0927875282
 248435.872211266 760411.503135583 7345.97152946183
 199151.488746419 774814.876041676 769.671753135569
 161529.182390425 783522.185342262 -1143.81500559575
 131865.779423482 789055.991493991 -1434.74892345321
 108550.822473644 792600.161027658 -1305.25063713179
 92281.5015799958 794658.862545278 -1190.22871185861
 30773.3079712889 -799406.945619898 -1240.48827826816
 36301.6956818069 -799174.802358521 -1349.87623323289
 44308.1126025434 -798770.763524501 -1434.74600041031
 54687.1983330115 -798128.076773162 -939.896196606479
 68242.0149837540 -797082.194206996 1732.93655923196
 86914.5344211439 -795189.855338744 10906.7718736434
 114982.419883776 -790790.454250744 37808.7368682552
 162237.654628432 -775646.409629826 109779.736969203
 248754.818122501 -705527.786712770 283463.547280816
 380825.810944096 -383902.785986479 589567.937247770
 381541.653121826 380137.974670578 591541.281016310
 249461.910164630 704588.908451631 285172.273308526
 162621.426012318 775450.290857300 110594.385983421
 115191.037502867 790743.047680282 38163.5614731102
 87038.4706154611 795174.062438712 11068.6520244241
 68322.1151777100 797075.160876907 1810.10792389579
 54742.3391975419 798124.350415246 -893.069662981597
 44347.8790120299 798768.608442162 -1405.62957612895
 36331.5871716456 799173.486367512 -1324.56060131105
 30797.3196107164 799406.055273047 -1218.15334858353
 -30927.3060154665 -799401.001660270 -1241.08306820133
 -36482.4513434850 -799166.572324839 -1349.23035033725
 -44527.2388285365 -798758.575027389 -1436.60103061176
 -54955.6034907745 -798109.641476805 -939.056297876730
 -68573.9729258019 -797053.713038676 1728.80549233858
 -87331.9068929838 -795144.198389697 10901.4588767405
 -115522.361873695 -790712.915896895 37784.5013325921
 -162967.217217040 -775504.275508195 109703.257841524
 -249786.443978314 -705268.790283867 283200.751863764
 -382230.914176463 -383628.347483906 588836.835850638
 -382948.658285789 379865.779602099 590806.495059425
 -250495.580855597 704328.877372650 284908.400140816
 -163352.416567822 775307.910447945 110515.302100180
 -115731.777480380 790665.130725018 38141.9288555266
 -87456.3637901460 795128.331564729 11059.8723182650
 -68654.4155381539 797046.608818731 1809.58494563485
 -55010.9869810486 798105.875844166 -895.686545352023
 -44567.1828069683 798756.404162063 -1404.64470273100
 -36512.4776522280 799165.240257210 -1325.79799788046
 -30951.4266546974 799400.103492144 -1218.08242279116
 -92362.1356159216 -794649.459699483 -1213.30284123050
 -108639.848300646 -792587.922572160 -1329.79470543732
 -131962.419582854 -789039.779792810 -1464.82843777925
 -161627.709647043 -783501.802851979 -1186.76111759701
 -199238.682277781 -774792.527563070 697.650803289753
 -248484.039769948 -760397.093377735 7207.10498724694
 -316295.983601117 -734378.375254918 25401.8250476381
 -414236.488923167 -680859.479981416 69559.3255002094
 -553949.444109933 -554622.892680436 159791.928097387
 -704766.078662387 -250846.516596535 283515.078043880
 -705439.754067864 248128.543381435 284230.503887391
 -554927.417287831 553403.319147011 160624.804744871
 -414949.939441810 680374.130494494 70054.1955281787
 -316764.188319049 734167.910850780 25650.1008882126
 -248795.026649845 760294.189379416 7333.50599632728
 -199453.156533281 774737.282405719 762.626718841584
 -161781.225575561 783470.181698501 -1144.30790826181
 -132075.889844270 789020.844711056 -1437.33548448077
 -108726.530533260 792576.077143092 -1305.18146884386
 -92432.4602589962 794641.315950011 -1191.33358249767
 -153162.778901333 -785200.498847695 -1157.48371537586
 -179203.577470896 -779669.446772337 -1277.33760251973
 -215763.066797052 -770353.251744383 -1471.91480275805
 -260807.607088185 -756291.787297428 -1457.58409600361
 -315231.240350784 -735274.768715134 -528.770094241899
 -381594.551019983 -703119.277200069 2980.04387711636
 -463724.639558195 -651770.507605356 12436.4015083766
 -564998.521047128 -565393.923519843 33262.3279611537
 -680500.215727558 -414817.260759123 69613.9107581645
 -775331.835885624 -163656.249706132 109896.206460245
 -775695.094854834 161779.108870524 110111.941910089
 -681198.592159374 413613.875422815 69943.1204465965
 -565655.746635689 564722.203050193 33502.3832011711
 -464243.228564804 651398.410244449 12583.1578997947
 -381985.442252505 702906.640890102 3062.04176184779
 -315524.869791939 735148.848922277 -475.889724555503
 -261030.427257103 756214.973699076 -1424.64005270968
 -215934.604066113 770305.238997942 -1444.13958311900
 -179338.407520196 779638.479728752 -1255.59323033744
 -153274.170780952 785178.794484096 -1135.45757910172
 -213356.245008406 -771023.966620008 -1074.99463405041
 -247815.672764842 -760648.391906064 -1190.05160643225
 -294895.797553865 -743662.879782778 -1410.60917885733
 -350547.106819997 -719106.539828158 -1584.38521313714
 -414032.774715913 -684525.434312353 -1338.37234209995
 -485645.835430224 -635726.444777530 99.6985531752300
 -565545.129382805 -565810.698644417 4118.24366717350
 -651512.476075038 -464086.758504900 12448.8593448542
 -734183.984613076 -316743.480183804 25444.9307076655
 -790639.529888849 -115991.955108227 37881.3955301301
 -790833.287955867 114640.681046507 37950.2952571769
 -734628.635765624 315700.895499568 25567.7940759348
 -652015.277978762 463377.064892964 12560.7728050460
 -566006.754518408 565348.347406589 4195.22635599306
 -486036.775894961 635427.594949059 155.096376402204
 -414353.501736904 684331.410707387 -1302.27401216956
 -350807.251711985 718979.733828018 -1553.86321039744
 -295106.408158245 743579.371386862 -1387.91637263984
 -247987.538509806 760592.412042285 -1167.68469444806
 -213501.796594065 770983.703875818 -1054.13900081686
 -273377.655298930 -751840.212827192 -975.683976813421
 -314711.198003029 -735496.914955851 -1072.35345110876
 -369320.420478937 -709648.345004426 -1285.86536619385
 -430838.480971485 -674074.077012280 -1530.36408274841
 -496756.805715034 -627080.535117514 -1636.59785143819
 -565587.893973205 -565781.527828207 -1263.70856384426
 -635534.208260986 -485897.375359496 103.676589639922
 -702954.635837453 -381897.664099002 2992.34195212205
 -760283.924957619 -248829.285707838 7234.64063827089
 -795106.840712135 -87665.2978093753 10950.2243246846
 -795217.872707031 86649.6380000810 10971.5615005871
 -760566.037774775 247964.152950168 7285.67328975106
 -703316.165361402 381231.055240037 3042.04896416588
 -635906.982356342 485409.401997071 149.141867572382
 -565936.646771921 565432.752730748 -1230.43889810838
 -497067.768537090 626834.151671884 -1606.16915224358
 -431108.700311880 673901.340414175 -1507.28344365893
 -369551.878982538 709527.881222526 -1262.73843181311
 -314908.678347147 735412.412711134 -1052.39348268991
 -273550.084470905 751777.520262645 -954.627523883052
 -333871.468927087 -727000.056873004 -871.517709344380
 -380364.070459945 -703791.362385694 -944.528682023008
 -439394.422792846 -668529.194673005 -1121.19953823036
 -502375.643518083 -622588.837971679 -1360.74717210923
 -565609.230617326 -565759.411944594 -1576.71702725820
 -626931.490867490 -496944.899539929 -1634.80271486973
 -684392.392816613 -414252.669824372 -1333.49095654436
 -735166.212467346 -315484.343381686 -518.774945379740
 -774724.927004244 -199501.317912017 715.282905962439
 -797031.880102212 -68826.5947240445 1755.55103169517
 -797099.431831252 68039.5138441459 1766.44562524848
 -774907.178589323 198792.162570444 735.303543732201
 -735420.166343761 314891.947116447 -490.485604271000
 -684678.105427992 413780.350612170 -1308.96707602096
 -627221.831273567 496578.480285763 -1608.50580205267
 -565888.517424186 565480.120437450 -1555.38982353358
 -502635.609180994 622379.027842375 -1337.94066851388
 -439631.078675297 668373.623829298 -1101.64971146867
 -380576.608212455 703676.482625595 -923.623936658851
 -334063.938313109 726911.659775681 -850.882424040823
 -395262.295299011 -695533.688902652 -778.149360362124
 -444964.752897077 -664835.085278601 -823.445104073287
 -505146.801384175 -620343.288258857 -955.909789579062
 -565623.131387227 -565746.548618388 -1147.15565190334
 -622468.423435035 -502524.838194915 -1359.71448359027
 -673965.677451189 -431008.041115829 -1527.77984573216
 -719012.480679631 -350740.014442122 -1579.52399902909
 -756221.790329972 -261010.541445657 -1449.51177154170
 -783458.739559537 -161836.410782184 -1174.54370778928
 -798096.537554372 -55145.8611491609 -922.356677152071
 -798139.282848900 54523.7495133363 -919.734989037177
 -783578.335278068 161256.453102957 -1161.38516687972
 -756398.174994198 260499.021575462 -1435.48725993361
 -719224.293842064 350305.553836758 -1560.15976957539
 -674195.931197148 430647.842900127 -1510.55045575803
 -622705.415908249 502231.193228745 -1339.23357421486
 -565858.980025011 565510.690010002 -1128.80887036157
 -505375.826030038 620156.754058426 -935.339602953615
 -445182.818063672 664689.109813939 -803.614112281898
 -395468.566538609 695416.451207467 -756.485235980610
 -457047.457012799 -656587.479380632 -709.900502023822
 -507694.609543648 -618260.180516646 -729.813569927305
 -565631.001293392 -565739.254332558 -816.384147223166
 -620241.055144232 -505272.323635393 -955.239059311822
 -668438.032706337 -439533.096572957 -1119.57521800112
 -709568.255614594 -369474.281499779 -1282.93970402103
 -743599.043532287 -295056.750003723 -1405.96412080433
 -770306.103831104 -215931.377721827 -1465.09921091567
 -789012.718585068 -132124.227589919 -1455.47063486272
 -798750.094035801 -44679.4995307447 -1424.64012350404
 -798777.826192838 44181.0615796003 -1420.62674304336
 -789092.111745046 131649.298409238 -1449.62412299883
 -770427.893069318 215496.521138437 -1452.91362569685
 -743752.544876746 294669.661315796 -1393.80393079234
 -709744.385297899 369135.887881942 -1266.41846044822
 -668630.210025645 439240.735935486 -1103.69194690084
 -620444.695948251 505022.279533131 -936.186329129841
 -565842.298731191 565527.945402439 -797.455640161305
 -507909.436704572 618083.734068756 -708.368595210450
 -457261.597686981 656438.389435155 -687.136472227033
 -516538.275991301 -610890.942331618 -682.651538789728
 -565633.771183887 -565736.666755034 -678.811607898816
 -618167.169043340 -507807.856509487 -729.372457300879
 -664754.065958978 -445085.784461049 -822.351323704799
 -703721.392145487 -380493.513515768 -942.554636926116
 -735439.784311903 -314844.692442025 -1069.24849664586
 -760603.326912006 -247953.974673207 -1185.55225390339
 -779638.228765735 -179339.388629580 -1271.19353174674
 -792569.764345010 -108772.337452918 -1321.83626889405
 -799161.135828156 -36601.7056527942 -1339.44957251745
 -799179.598082003 36196.3872255272 -1338.49217696930
 -792623.448712095 108380.525167920 -1315.41478998325
 -779722.839502189 178971.219238213 -1263.42511854358
 -760713.818141548 247614.842133250 -1173.38988982916
 -735571.936030798 314535.866161267 -1056.32480053551
 -703872.611207053 380213.741836295 -926.127101102802
 -664923.306437894 444832.944515492 -805.002718324694
 -618354.165858602 507580.164099306 -708.927524350197
 -565837.518698541 565532.909279608 -656.471492450848
 -516754.453808420 610708.115524626 -657.344294540696
 -565631.695407214 -565738.710495634 -704.696742975123
 -610797.409190296 -516648.874218016 -682.418991809965
 -656508.285957807 -457161.205135935 -709.216048962393
 -695467.325305571 -395379.053570898 -776.807372750468
 -726945.693556946 -333989.824567218 -869.312700682552
 -751796.596066592 -273497.591522187 -972.406421356890
 -770991.079635086 -213475.078839635 -1070.43801140855
 -785177.743741549 -153279.433872316 -1151.47067412531
 -794636.693764588 -92472.0020013933 -1205.72332665392
 -799397.101493973 -31028.3168184653 -1231.94092664153
 -799410.320262913 30685.9441032872 -1229.91529672294
 -794675.486720180 92138.0931959251 -1201.07795992665
 -785239.949796012 152960.499653830 -1143.14916194977
 -771074.208609601 213174.673263597 -1059.95095920307
 -751898.840501656 273216.424004174 -958.804795841027
 -727066.601769221 333726.576409965 -853.691654238786
 -695608.055809266 395131.443750060 -758.190772294404
 -656671.373793246 456926.945472828 -687.998083935243
 -610985.769791803 516426.138606001 -657.629390224118
 -565845.165473460 565525.234749051 -676.440940046726
# End: Data Text
# End: Segment
