# OOMMF OVF 2.0
#
# Segment count: 1
#
# Begin: Segment
# Begin: Header
#
# Title: Oxs_TimeDriver::Magnetization
# Desc: Oxs vector field output
# Desc:  MIF source file: C:/Users/Victor H. González/Documents/GitHub/Intro-to-magnetism-in-python/vortex_dynamics/drive-2/vortex_dynamics.mif
# Desc:  Iteration: 2539, State id: 15999
# Desc:  Stage: 362, Stage iteration: 6
# Desc:  Stage simulation time: 1e-11 s
# Desc:  Total simulation time: 3.63e-09 s
# meshunit: m
# meshtype: rectangular
# xbase: -4.7499999999999995e-08
# ybase: -4.7499999999999995e-08
# zbase: 2.5000000000000001e-09
# xnodes: 20
# ynodes: 20
# znodes: 1
# xstepsize: 5.0000000000000001e-09
# ystepsize: 5.0000000000000001e-09
# zstepsize: 5.0000000000000001e-09
# xmin: -4.9999999999999998e-08
# ymin: -4.9999999999999998e-08
# zmin: 0
# xmax: 4.9999999999999998e-08
# ymax: 4.9999999999999998e-08
# zmax: 5.0000000000000001e-09
# valuedim: 3
# valuelabels: Magnetization_x Magnetization_y Magnetization_z
# valueunits: A/m A/m A/m
#
# End: Header
#
# Begin: Data Text
 567861.032237161 -563500.608536885 -955.115232058329
 612702.241299658 -514388.127311168 -904.426716550600
 658056.334031878 -454929.692841593 -914.227313353478
 696676.087294580 -393244.830134189 -965.900951510282
 727848.717420930 -332016.744429757 -1061.11590935129
 752425.243434727 -271762.596458124 -1159.40007378113
 771383.560923802 -212051.361877463 -1273.52362739494
 785376.181967793 -152257.722949921 -1355.94977654521
 794699.887740456 -91924.0856860682 -1432.09499923301
 799397.021744008 -31020.5390245361 -1458.69305768492
 799430.695725350 30139.4952232631 -1474.29975574081
 794800.377117864 91051.0324531811 -1438.75728008302
 785542.319279459 151397.914654816 -1391.42345115144
 771615.123408871 211207.038523322 -1299.30940181549
 752724.636311827 270932.024174239 -1208.37331824785
 728221.808905385 331197.498958947 -1101.68866195611
 697132.897833795 392434.293228335 -1023.84385092995
 658609.062796454 454129.015474087 -969.384812059044
 613361.537869446 513601.671197082 -973.245083653370
 568621.570630430 562733.017409448 -1029.82087836484
 518876.378720848 -608905.983323362 -898.375504858539
 567769.481313495 -563592.974517991 -880.433398614121
 620007.693705390 -505558.734486205 -908.697326023022
 666271.070373613 -442811.291466728 -1010.41217775505
 704901.114957600 -378303.023511997 -1113.79226715026
 736297.568629977 -312832.669618806 -1269.34973697638
 761153.888159583 -246257.735327482 -1373.43763220076
 779928.766878390 -178069.825039256 -1502.00068029278
 792664.602164731 -108076.135292160 -1541.89991217508
 799162.912030526 -36552.2929690189 -1603.09500579638
 799208.569474838 35540.9931559059 -1581.22847064921
 792799.635297278 107080.423097215 -1587.84817430037
 780149.043266114 177102.249822388 -1504.45964191468
 761455.298310807 245323.802451047 -1435.48784750478
 736677.844735367 311936.028903673 -1291.10335048489
 705361.642243265 377443.448994509 -1181.72036180561
 666814.210169679 441992.885280824 -1048.08249619887
 620635.817433230 504787.308802694 -977.236265733147
 568476.749005384 562879.480075524 -936.349388597699
 519640.864142503 608253.591707385 -969.787759297468
 459530.145957745 -654852.076702802 -895.876152631491
 510100.241522664 -616276.674414042 -896.756203553540
 567860.589776169 -563500.986122941 -994.594155999187
 622193.946942351 -502865.242970919 -1113.46311043398
 670060.181192456 -437055.627638147 -1316.02817480896
 710802.668903274 -367093.216275313 -1461.65817761875
 744441.027934649 -292924.637728941 -1646.97874071122
 770765.649612371 -214283.542662762 -1696.09006721500
 789175.869592509 -131142.436981420 -1762.97347748728
 798755.714678450 -44568.6779196274 -1714.99767190772
 798820.554506344 43388.9876960308 -1765.62875194941
 789365.871469228 129994.150691530 -1744.06009488546
 771069.002652375 213188.770063445 -1772.41854725760
 744844.061501376 291898.247957027 -1654.35357537278
 711294.131152965 366139.676260792 -1548.04876919509
 670629.795082774 436181.016126343 -1341.31212862556
 622833.476954767 502072.734216864 -1195.63390679054
 568556.164788005 562799.089562679 -1035.50421226672
 510833.316843653 615669.052397880 -969.702020294720
 460275.060750394 654328.625820713 -958.062000990696
 397916.334872893 -694018.534858595 -929.362175534747
 447672.873618119 -663014.356307098 -980.590221121760
 507810.317915755 -618164.607319985 -1095.11425411894
 568133.211755424 -563225.434305498 -1328.10084279725
 624677.653313389 -499775.459201744 -1523.09900031211
 675774.972562775 -428164.760086761 -1767.67577007513
 720310.114331584 -348066.125985123 -1819.65198004712
 756987.345768394 -258779.622831910 -1806.97357367164
 783744.079721368 -160445.638874982 -1553.85575455615
 798114.574994542 -54873.7145425557 -1414.43755076576
 798207.577538259 53504.9358447063 -1372.95329815996
 784011.209824926 159134.372711034 -1635.32587648407
 757400.804710129 257567.016663903 -1803.59399657657
 720838.660043885 346969.621464876 -1925.60812646939
 676389.551126911 427193.140364894 -1787.72243827641
 625355.361800638 498926.867575859 -1628.58163299769
 568849.815586210 562501.586724440 -1360.97025004792
 508543.934221795 617561.062119765 -1183.85798404705
 448397.860686760 662524.188038847 -1028.97765012862
 398617.274469881 693616.080752620 -1000.50766052471
 336734.119113352 -725678.394165345 -1000.63308043297
 383395.579027789 -702144.363545468 -1059.58637101048
 442562.311298100 -666436.031077635 -1271.65245824923
 505533.945533330 -620026.769936331 -1494.81631811226
 568609.697988646 -562743.104609288 -1791.52671255104
 629544.900970177 -493629.175176861 -1858.78365084268
 686434.053354227 -410859.297869409 -1711.06690220461
 736451.283674015 -312471.651028155 -986.954220963065
 775259.804574955 -197413.868138443 8.77610216637533
 797077.296410168 -68314.4731350143 957.239647939607
 797210.970252818 66737.3718045530 890.007405483064
 775632.870738026 195942.974245129 25.9742244505625
 737003.496542976 311166.567753951 -1101.45161215078
 687102.338397626 409740.620432761 -1732.20549922213
 630280.256999483 492689.391018286 -1990.38054083019
 569371.843616382 561971.858400565 -1825.94159182049
 506294.537121861 619405.560323458 -1610.44122670158
 443293.754015541 665949.640768881 -1312.86351485330
 384081.413561456 701769.301829354 -1146.63271159146
 337369.642695111 725383.067990411 -1062.47851375121
 276476.478767005 -750706.076956594 -1068.97569606289
 318114.430613745 -734031.203070674 -1184.04134726858
 373028.890705952 -707705.827919793 -1381.24112544322
 434787.103300510 -671533.539851416 -1696.95556130363
 500739.548947580 -623904.344597783 -1809.11906320590
 569370.018964210 -561974.398985649 -1598.87129362602
 638729.786188110 -481688.822733861 -371.872774183355
 705199.881793472 -377741.450811504 2126.74805576020
 761322.566389088 -245667.127973519 5967.59080163531
 795241.074969680 -86640.7980952631 9219.80403710713
 795435.806842110 84829.7786782576 9262.06471789257
 761843.193822581 244050.016185611 5876.87212836385
 705918.033106825 376397.759127070 2111.26945483305
 639540.153920596 480612.237166415 -518.660884680909
 570199.594953233 561132.531465578 -1644.39843122871
 501547.203478298 623254.821675663 -1957.02354028820
 435542.783432271 671043.552656532 -1741.90647559550
 373719.240819490 707341.283097326 -1496.08406602528
 318730.331525882 733763.891692598 -1235.72389042595
 277029.469218612 750502.066947073 -1149.21391646172
 216718.113746199 -770085.672152022 -1147.48440456510
 251597.768616485 -759405.690446612 -1249.05744894972
 299215.305852283 -741935.234636600 -1519.32500026618
 355363.439336070 -716738.436814794 -1684.98531917734
 419266.932341199 -681331.608661594 -1574.32010880132
 491005.663366388 -631595.893288643 -257.144033559687
 570600.625457146 -560717.271040345 3326.88818292219
 655518.815404861 -458447.832045364 10984.8961357927
 736403.336293408 -311755.581269916 22772.4360355913
 791101.199827302 -114010.770576893 34065.1702515347
 791401.391900589 111915.853031604 34039.3704115967
 737129.991645658 310030.527002394 22813.3238062572
 656424.760134070 457152.351332203 10874.8312339352
 571524.939909836 559775.393700956 3278.97361967817
 491878.742439316 630916.094560287 -429.372927888539
 420055.775299342 680845.409480313 -1635.24531937536
 356062.103685199 716391.240358384 -1835.49912753497
 299820.017869312 741690.965616399 -1571.11675547776
 252118.754015479 759232.704924724 -1354.12199205117
 217172.230804656 769957.623871347 -1216.39209123919
 156778.211107856 -784486.570469003 -1188.81268611910
 183378.377392214 -778698.013589473 -1332.04234465084
 220668.902589683 -768962.265073043 -1506.75930393271
 266581.136949518 -754275.809378731 -1581.39456288808
 321871.378661019 -732392.193810709 -700.031421231810
 389051.065520336 -699022.933076626 2491.47555531491
 471589.249344444 -646122.550553007 11367.9184383411
 572380.685801537 -558066.045751944 30702.4282451961
 685727.534729614 -406991.443232889 64309.5113405253
 777374.908067680 -159630.814051557 101026.014036008
 777860.126663502 157142.438108897 101192.279805487
 686746.581673052 405253.488258754 64410.7352425995
 573451.149880639 556963.277436588 30752.0127417205
 472551.804551355 645421.333031818 11229.1977758985
 389871.268478540 698566.062993975 2418.60456277726
 322563.307403711 732087.516817412 -883.423394460973
 267157.077982748 754071.869401055 -1646.65166882379
 221149.809984013 768823.810433253 -1646.22444658546
 183777.285493862 778603.859781310 -1392.43317735649
 157119.917619831 784418.059068663 -1280.66158222255
 96202.6930151814 -794193.648603193 -1220.80914700474
 113132.496875987 -791959.150567951 -1319.84176827081
 137412.600512694 -788108.825932715 -1501.90122737079
 168244.861606307 -782107.545203735 -1205.93468409306
 207325.481695917 -772668.019488677 525.641514102836
 258279.568614547 -757129.657178317 6807.83793344900
 328042.576625454 -729250.097764776 24132.1949063470
 427635.160830805 -672876.615480999 66069.8839112639
 567302.666032886 -543576.219682681 150640.560631804
 714755.979007307 -243022.501211990 264695.965926899
 715587.594810290 239936.534854909 265263.743084959
 568605.006495341 542050.837348986 151225.779276204
 428720.087630278 672170.903278060 66222.0752366107
 328863.252457817 728880.142192434 24139.1694224270
 258911.010909088 756915.525230727 6631.44740818801
 207817.773914312 772535.809549888 442.502428655657
 168638.979045819 782022.368489417 -1382.00165963269
 137727.486544384 788053.733321798 -1566.15699841691
 113390.004861254 791922.113939202 -1439.53173988602
 96418.5842264521 794167.345612480 -1297.60494561379
 34913.7747985563 -799236.875347411 -1202.25380903230
 41204.9918829859 -798937.031856652 -1329.57587479265
 50308.8206611459 -798415.384894149 -1376.85439021518
 62176.8037008765 -797579.571823407 -933.644222808463
 77658.9509981466 -796219.815443021 1758.64315582661
 99035.5083109163 -793773.644418025 10741.0204788383
 130985.770428996 -788327.186923303 37188.3624634721
 184275.991675272 -771049.274409430 107356.300815498
 280136.600450122 -697041.929626842 275056.418631412
 423268.463073049 -374935.710674282 565921.391209900
 424187.103466623 371118.110971768 567746.993793313
 281126.482756106 696097.730787905 276434.169170728
 184887.027886452 770834.249378165 107848.722314711
 131378.259247372 788262.294434053 37179.4051955206
 99306.7473342512 793740.578129683 10680.1013220147
 77862.4216464421 796200.351762161 1563.05763255232
 62331.1464125355 797567.429538779 -1011.69452147076
 50432.3471713834 798407.312941514 -1530.03277570099
 41302.3236532403 798931.892126749 -1396.35368638284
 34995.8158964038 799233.132210804 -1301.24795951761
 -26728.8139083151 -799552.491169400 -1176.59332898851
 -31525.5772710936 -799377.602135851 -1259.83382296747
 -38426.7143715185 -799075.417760558 -1365.41327087254
 -47380.3594397985 -798595.319982938 -785.137378951764
 -58989.7712502537 -797819.891234999 1904.74082641146
 -75017.1627121822 -796394.584251016 11317.7504066136
 -99132.5586879336 -792890.372687965 38698.7429605116
 -140154.465862308 -779564.667095318 112408.431691836
 -216396.958388095 -712817.021364784 291657.762545453
 -335078.558195964 -391722.421164682 611780.928596334
 -335822.173642064 387887.736374344 613813.140671252
 -217142.046603771 711963.598623708 293184.525225165
 -140591.089853501 779418.468193562 112876.024436573
 -99401.6918050620 792852.598407643 38782.2235636206
 -75200.2665378587 796379.599875118 11155.8422085491
 -59127.4596516946 797809.900478158 1818.29980166375
 -47484.5761391933 798588.930158827 -967.293472544429
 -38511.3093970935 799071.226291828 -1433.30422283290
 -31592.0816858172 799374.772249245 -1383.42554003396
 -26785.3127532154 799550.480140472 -1255.67824442296
 -88215.6272192458 -795120.608919349 -1104.71083903929
 -103769.885687593 -793240.376493818 -1231.22878800813
 -126082.710018050 -790000.919130344 -1303.07625113824
 -154439.471210119 -784950.590253336 -1010.24416838350
 -190487.087846241 -776990.046842378 1066.05428488409
 -237795.430820837 -763800.654526406 7867.22478167675
 -303424.575208284 -739731.689605802 27028.7726805981
 -399296.628623037 -689305.716615682 73619.5042853342
 -538626.506076315 -566539.656480608 170042.067109450
 -692701.218229189 -259696.594785243 304504.024473812
 -693550.185398970 256562.608139582 305227.404467014
 -539909.757619858 565123.455553189 170683.723917918
 -400309.663525384 688689.990425161 73880.1081238141
 -304172.730394868 739427.019243769 26956.1365259731
 -238361.383637480 763624.943249419 7797.23269805705
 -190925.356715312 776882.711156822 872.507167676506
 -154789.512129846 784881.539072718 -1084.69232822689
 -126361.885686676 789956.052093497 -1452.44847161214
 -103998.316636684 793210.356885890 -1296.09632902062
 -88406.9746404547 795099.215722914 -1201.66206961571
 -149141.154658663 -785974.465000995 -1027.79058164063
 -174570.161311832 -780720.182744537 -1120.28340051893
 -210281.103939888 -771867.943452968 -1317.26819918403
 -254385.638074466 -758476.451631009 -1191.41205334416
 -307780.157292872 -738424.907272801 -176.340378524921
 -373233.021909228 -707589.882164901 3697.29825229631
 -454792.008514177 -658007.017957061 13820.0329556390
 -556514.132129466 -573563.470762255 36290.0226969141
 -674291.251047959 -423794.603470551 75693.0831015405
 -772757.758938508 -168700.191728905 119940.365644626
 -773277.782397975 166195.449952579 120085.568095130
 -675325.206858819 422107.030991217 75904.6729053887
 -557574.098086155 572534.113527975 36274.1504400502
 -455721.006704032 657364.677414765 13785.6786573803
 -374014.511740272 707178.042467875 3515.85821529808
 -308433.689865405 738152.149163385 -252.272642403207
 -254926.708264200 758294.485818336 -1358.74614467846
 -210731.632445067 771744.960243309 -1376.74474467061
 -174942.961709862 780636.557880701 -1234.76651735385
 -149460.082349916 785913.780396886 -1101.61982166858
 -209513.640764303 -772077.203751973 -908.724502475016
 -243470.764591926 -762050.470457052 -1033.08528583835
 -289951.112157059 -745605.074762949 -1193.75316631927
 -344983.638487410 -721792.529314210 -1354.17952429852
 -408005.013351663 -688135.892156614 -950.266136418539
 -479396.079223779 -640452.170133694 645.752204743839
 -559623.341312482 -571660.095985236 5143.00655275888
 -646702.930158562 -470715.378876590 14225.0558311396
 -731421.366986101 -322813.400829926 28535.8048913891
 -789980.102963872 -118950.798315575 42215.4533468162
 -790289.652340540 116851.889453577 42283.5823292966
 -732169.205866027 321116.923681169 28498.6895673227
 -647612.318444946 469463.608254625 14219.8988361382
 -560537.981271625 570764.648265944 4988.77157073937
 -480249.557273718 639812.491530465 581.738752519027
 -408769.680579861 687681.679532476 -1120.65785684729
 -345657.112900373 721470.144988023 -1410.74176972953
 -290531.421116421 745378.924777727 -1323.57140785791
 -243969.292924790 761890.934979005 -1089.63599143595
 -209947.159963857 771959.324259121 -995.847634940908
 -269720.624889864 -753160.113863524 -792.082132846753
 -310698.425621583 -737201.283140685 -869.742489071398
 -364912.168928371 -711925.502131266 -1090.12987147721
 -426160.151609305 -677042.063403092 -1252.82210127406
 -491979.295892588 -630836.421638757 -1334.74605867157
 -561047.131128785 -570285.456062627 -784.382305378587
 -631611.739167547 -490984.777461287 747.828214178456
 -700142.449571462 -387019.596096246 4047.53574053208
 -758878.531248188 -253036.219336512 8720.46526732423
 -794863.581522261 -89585.4555384956 12897.0122728079
 -795066.411925230 87775.6290833704 12838.9862279299
 -759410.882513487 251433.445787125 8736.92507122897
 -700869.335224529 385702.965254880 3923.96935750876
 -632422.354502821 489940.264084079 709.333723236015
 -561869.089297528 569475.408346297 -941.159276868283
 -492773.833442638 630215.864155419 -1383.34416692747
 -426898.961475212 676576.195118948 -1388.84475470637
 -365584.136816639 711580.597452931 -1136.76583421705
 -311295.624860293 736949.183145617 -967.162782611519
 -270255.418177728 752968.308367075 -857.636523697446
 -330395.358489254 -728586.630358199 -655.096970672746
 -376662.234235607 -705779.718017802 -742.250197002918
 -435532.524763495 -671051.893908587 -880.655910994219
 -498482.747236371 -625710.539020288 -1127.85930908601
 -561913.467418276 -569431.008500473 -1257.65341164640
 -623647.625271769 -501060.832447331 -1296.79607910577
 -681797.276567745 -418511.371511123 -839.988503335747
 -733445.861204198 -319463.869131267 70.7256204205704
 -773941.466915852 -202514.818057124 1534.35831139243
 -796907.610341117 -70222.7450811418 2650.78359735776
 -797044.749594131 68647.0371150750 2692.84974515798
 -774322.921030293 201052.072574365 1441.55494783562
 -734006.087265369 318174.574387061 63.8043540535858
 -682469.589660848 417413.843950358 -970.601226165923
 -624382.349596733 500144.893765482 -1329.19237811405
 -562669.753340116 568683.413155856 -1387.18332537363
 -499233.520264531 625111.615427601 -1166.40549612346
 -436250.934627329 670584.933937983 -984.079353324250
 -377333.222838668 705421.159182772 -791.908719543319
 -331015.172806673 728305.170276232 -730.972417904883
 -391941.266427637 -697410.748641131 -539.769319681707
 -441573.748199159 -667092.411495295 -582.603414638519
 -501783.649761744 -623067.117826360 -731.789133713298
 -562454.950367780 -568896.873825045 -880.771747040421
 -619633.721936081 -506016.624872158 -1107.24551437934
 -671628.390422286 -434642.223947697 -1200.97484157864
 -717270.283085822 -354290.519229032 -1252.59187567063
 -755147.741376599 -264103.877313038 -1015.22511812937
 -782986.650503919 -164107.815465783 -728.035508347524
 -798023.919051608 -56193.1888527648 -387.489445245264
 -798119.026537404 54825.3316054926 -449.992593935394
 -783259.448170549 162800.908299903 -707.890029616077
 -755567.425539013 262900.408065815 -1113.95833630627
 -717804.133162945 353207.625296586 -1264.85040205891
 -672245.261195836 433687.198946493 -1312.35273009956
 -620310.562160887 505186.615321369 -1135.85729045937
 -563166.856068578 568191.982736030 -981.315613596045
 -502509.176521814 622482.073068871 -772.152348173852
 -442287.653966148 666619.225333528 -662.996869289698
 -392629.204240444 697023.634181338 -601.140713010069
 -453865.924528016 -658790.963909705 -434.077473455391
 -504596.407419185 -620791.621063758 -478.368773803807
 -562756.311834939 -568599.175315339 -557.961156450554
 -617692.986732220 -508384.557579630 -718.161815848975
 -666311.075418330 -442751.432789492 -848.255692293719
 -707903.557433066 -372654.651276529 -1031.62763575227
 -742433.679962585 -297978.219363126 -1100.74629006805
 -769612.333549636 -218392.926030950 -1177.24590649851
 -788720.934373048 -133858.364798669 -1107.18342338399
 -798703.016287463 -45522.1081805912 -1108.80120071511
 -798769.403643177 44342.8219906099 -1074.21666003901
 -788914.477760048 132712.357338474 -1173.45228068921
 -769920.672891875 217303.427194900 -1173.87523755739
 -742841.330728659 296960.181727650 -1186.51993518096
 -708398.741698967 371712.415188244 -1050.31149828260
 -666882.315297873 441890.372234145 -936.199612873563
 -618331.685761718 507607.486646175 -752.252501093646
 -563447.908760022 567913.768262944 -637.127413234047
 -505322.276078145 620200.868033380 -529.707320136420
 -454600.865201942 658283.980244662 -504.688907524292
 -513482.135987332 -613462.272058583 -369.841327741907
 -562835.964361734 -568520.470823593 -389.198559710592
 -615738.230789824 -510750.634885426 -469.156638073086
 -662742.331746883 -448076.207721764 -560.164607789729
 -702127.421407122 -383427.426131759 -702.138277149274
 -734259.783523392 -317587.654371790 -807.521396693513
 -759805.336642521 -250389.619455762 -942.803448932829
 -779183.221797904 -181307.784112867 -997.140271023061
 -792379.165968942 -110154.950489822 -1069.68263849626
 -799130.595065866 -37271.5369942822 -1060.45262007997
 -799177.067980870 36260.3646223429 -1095.43185740510
 -792516.794730778 109160.451892588 -1061.04300531397
 -779406.964287959 180343.208933914 -1054.04499243651
 -760110.754618352 249460.868752579 -956.908944189246
 -734643.710842639 316698.360111920 -875.683605597137
 -702590.883049744 382577.460336110 -733.415402242764
 -663286.923747983 447269.559968784 -630.484153572664
 -616365.724714084 509993.163318581 -516.493939148842
 -563539.732803059 567822.822665725 -460.013244516493
 -514240.112595386 612826.986151071 -437.770350582232
 -562685.755382049 -568669.166190938 -346.574433489442
 -608270.980834150 -519621.285858104 -364.908525493800
 -654444.997794845 -460110.387506698 -419.725794194325
 -693838.991566058 -398230.073807854 -511.954671855208
 -725711.954684758 -336662.719519672 -610.010858354050
 -750911.553230963 -275919.032916785 -725.602184214807
 -770412.344524988 -215555.449859541 -816.969621370627
 -784852.846951096 -154936.072696843 -906.647692363857
 -794503.378102500 -93613.4399179471 -951.866821914156
 -799375.092260275 -31598.7285631702 -991.073694189550
 -799409.435268563 30717.7618807011 -986.868095419358
 -794605.641431812 92741.1250374213 -978.944091326577
 -785021.694251506 154078.177240955 -924.582391977698
 -770647.094040305 214714.494191519 -861.644539726357
 -751214.346114147 275093.488545575 -760.757596640390
 -726088.240485916 335850.300021892 -665.584909469112
 -694298.429434229 397428.454006657 -561.098068430795
 -654999.178411115 459321.066258431 -484.119802119932
 -608929.795282818 518849.032867350 -430.708070073148
 -563443.234847211 567918.604449463 -424.057880862252
# End: Data Text
# End: Segment
