# OOMMF OVF 2.0
#
# Segment count: 1
#
# Begin: Segment
# Begin: Header
#
# Title: Oxs_TimeDriver::Magnetization
# Desc: Oxs vector field output
# Desc:  MIF source file: C:/Users/Victor H. González/Documents/GitHub/Intro-to-magnetism-in-python/vortex_dynamics/drive-2/vortex_dynamics.mif
# Desc:  Iteration: 2609, State id: 16439
# Desc:  Stage: 372, Stage iteration: 6
# Desc:  Stage simulation time: 1e-11 s
# Desc:  Total simulation time: 3.73e-09 s
# meshunit: m
# meshtype: rectangular
# xbase: -4.7499999999999995e-08
# ybase: -4.7499999999999995e-08
# zbase: 2.5000000000000001e-09
# xnodes: 20
# ynodes: 20
# znodes: 1
# xstepsize: 5.0000000000000001e-09
# ystepsize: 5.0000000000000001e-09
# zstepsize: 5.0000000000000001e-09
# xmin: -4.9999999999999998e-08
# ymin: -4.9999999999999998e-08
# zmin: 0
# xmax: 4.9999999999999998e-08
# ymax: 4.9999999999999998e-08
# zmax: 5.0000000000000001e-09
# valuedim: 3
# valuelabels: Magnetization_x Magnetization_y Magnetization_z
# valueunits: A/m A/m A/m
#
# End: Header
#
# Begin: Data Text
 568574.190482625 -562781.466901217 -640.647752642941
 613349.486228948 -513616.600221172 -629.062738860995
 658648.896466889 -454071.786354380 -666.348176140589
 697227.004796739 -392267.693211199 -748.762267270199
 728367.918778102 -330876.785148919 -853.196561695940
 752908.786901107 -270420.794113925 -976.072690409772
 771818.913677369 -210462.291718182 -1090.07092336748
 785734.628430829 -150398.337776273 -1197.36326992682
 794945.236614899 -89780.0191406893 -1272.37823739824
 799486.827864656 -28618.9875710093 -1328.76684207635
 799327.926247508 32757.4427509520 -1347.68886486448
 794479.318709933 93812.5815264478 -1345.99017220081
 784988.785938720 154243.004096659 -1304.46835612663
 770824.717868283 214074.069539152 -1243.81438666723
 751690.015725154 273789.663321827 -1157.80708160886
 726931.992718039 334019.042389158 -1075.77154208344
 695562.013193110 395211.946671981 -1001.50411403757
 656725.566913815 456848.555467556 -962.875348629211
 611132.930937375 516251.490769218 -969.021389962362
 566063.945869357 565305.710442263 -1030.98408516119
 519566.187460598 -608317.835449770 -622.833336066742
 568441.320985295 -562915.689804294 -625.114908792777
 620658.287448767 -504760.156095368 -689.231269273687
 666910.872466234 -441847.561751283 -787.629845227007
 705526.376632596 -377136.141946566 -928.608281248091
 736906.640115123 -311396.008599082 -1062.81832904737
 761717.093586906 -244510.953935092 -1209.43923664511
 780409.199624375 -175953.881918362 -1308.65560844993
 792999.041791622 -105596.221383393 -1399.19516835672
 799287.768552833 -33719.4921131968 -1434.88447658240
 799065.457232887 38629.2890971747 -1474.13739016523
 792353.061415319 110338.053657992 -1462.86730028511
 779392.761221616 180401.903838221 -1441.12695106974
 760393.145913676 248596.912632835 -1355.97821722303
 735328.119784414 315104.682054837 -1263.17118339035
 703726.907968262 380482.773529741 -1139.31933412089
 664904.110046130 444861.144266628 -1042.48047912539
 618448.059090017 507465.341459344 -961.990302000671
 566037.798954237 565332.049321658 -940.300386890295
 517017.774776251 610484.789796766 -970.562832884309
 460146.819225657 -654419.196838729 -647.738731372404
 510742.028568570 -615745.175920518 -677.188505129370
 568539.383264288 -562816.475203349 -764.798759425957
 622903.742941940 -501986.132066117 -922.085799290251
 670810.304062815 -435904.065740815 -1086.93779893290
 711567.794416572 -365608.578076113 -1281.24404332653
 745196.031792802 -290999.793852912 -1412.15361200451
 771432.876689413 -211870.260560610 -1519.68834828005
 789662.656654758 -128181.675700229 -1531.89413197507
 798940.229102885 -41134.7763289709 -1562.20913936714
 798605.210175379 47193.5137424779 -1578.14491617533
 788704.403047291 133950.136016577 -1650.96182800765
 769965.187675697 217142.541069038 -1651.24971140200
 743350.468639789 295681.361295428 -1616.58760652577
 709457.051041508 369687.033909139 -1479.75908510708
 668515.116955413 439415.238922706 -1336.48965185742
 620480.671189546 504977.603329264 -1164.82445184465
 566032.440494947 565337.230587640 -1044.99704881485
 508198.648059524 617845.614598824 -964.692423782190
 457613.243590750 656192.947192578 -967.132396368509
 398400.950827996 -693740.711874683 -712.086341578862
 448220.547986968 -662644.524688889 -757.800830703051
 508434.965015289 -617651.252241859 -903.855058169386
 568862.216210568 -562489.637159495 -1089.52107835044
 625502.234376081 -498743.611699442 -1328.37476897683
 676702.953308884 -426697.636621703 -1496.62436427335
 721281.225815836 -346050.343303174 -1597.86900586705
 757916.694345381 -256046.974913473 -1493.67674826946
 784452.280550357 -156948.759238518 -1306.33565145901
 798395.518938186 -50629.6970198887 -1108.65643887721
 797877.429242251 58225.3413801560 -1190.59940474929
 783003.080145074 164024.722881293 -1437.62548749484
 755782.140987996 262279.159995980 -1731.35652123600
 718723.692008155 351330.235931035 -1822.05016688605
 673930.611424100 431061.909542056 -1777.95598809416
 622659.087036551 502287.933618052 -1578.94664794868
 566042.069231481 565326.878995882 -1376.86052975294
 505705.268308205 619887.744084429 -1168.90514824523
 445626.600633857 664391.324670992 -1049.05168564733
 395949.731504591 695142.280959813 -1009.62539191536
 337031.907698698 -725540.394776715 -792.931412189945
 383761.438773676 -701944.722051711 -874.810896938256
 443048.387474826 -666113.382583871 -1043.02379237166
 506159.859477069 -619516.347945258 -1300.49326193439
 569430.807512137 -561913.060502659 -1505.95239344262
 630557.018702007 -492336.547891868 -1603.05195017905
 687632.103487947 -408852.480187262 -1318.97591596847
 737695.092016549 -309524.775017386 -604.040670886632
 776299.156670857 -193285.652029091 525.425356055219
 797508.949426509 -63068.0125077871 1378.90643048223
 796686.411819394 72726.2468230532 1286.17470514219
 774081.214995116 201985.710112927 213.311651173969
 734606.644679130 316784.162977370 -933.638044165460
 684163.447771503 414629.325847277 -1702.61000905371
 627042.236755939 496804.127480462 -1921.52087871525
 566060.398302093 565307.183651204 -1847.58935317714
 503034.258073112 622056.285334967 -1585.26972378365
 440211.278817835 667991.180761484 -1346.26388413135
 381220.019466539 703327.783812246 -1151.20618792125
 334732.743815640 726603.608920325 -1088.90845008171
 276524.706344541 -750688.551192362 -886.504245724170
 318226.291201835 -733983.017659222 -978.455817704169
 373240.861643826 -707594.385477328 -1202.01511503583
 435181.814535994 -671278.446942149 -1426.52307910873
 501366.745351259 -623401.134262767 -1553.20822214109
 570335.157042135 -560995.932724846 -1171.37009655569
 640047.004723384 -479937.304726663 123.597460562966
 706802.943765679 -374728.112418511 2905.24481404132
 762824.752697600 -240938.582550988 6855.37089927460
 795922.567696835 -80021.1969309368 10191.8728709079
 794566.947465084 92551.5283495850 9878.28913194241
 759374.304585614 251617.984824612 6249.41980639613
 702381.141624125 382956.727785261 2208.28775217643
 635492.844602547 485951.288537721 -435.462387370656
 566084.224228140 565283.856482124 -1677.10486299543
 497589.510385318 626419.146672820 -1931.79610600578
 431910.306801246 673387.162860166 -1793.25792588183
 370448.930755923 709059.480667998 -1497.52349624342
 315849.884783035 735008.304482856 -1281.64885211830
 274453.078458271 751448.016669418 -1177.27158194396
 216464.654890334 -770157.205242675 -965.606546003865
 251355.390595592 -759486.198779862 -1086.95972934305
 299042.971205300 -742005.153454604 -1285.93138027721
 355309.373590713 -716765.727060214 -1463.40371008880
 419473.314537805 -681205.365386203 -1178.37163820021
 491599.500189707 -631133.797868641 246.172980252151
 571790.787656734 -559497.314920072 4248.49951403243
 657354.785556343 -455776.193446635 12359.1016449768
 738524.712179175 -306538.360972036 24808.9248707762
 792183.379219393 -105533.414473336 36168.9385819203
 789806.960295620 122290.459029984 35355.4677359606
 733060.504931460 319503.735551007 23230.5634582144
 651162.063917805 464615.512410981 10972.3352749979
 566106.826971893 565254.699842833 3191.35729804805
 486796.098803156 634845.928985827 -452.371694620733
 415544.710596713 683607.788789614 -1727.59985788464
 352136.014643872 718329.175431894 -1850.11190628698
 296482.492625969 743031.243541003 -1643.98546337301
 249273.145569461 760171.682263824 -1382.88903896644
 214703.920182180 770649.474221933 -1270.64545102482
 156167.146305356 -784608.664118113 -1032.76601004862
 182719.084880658 -778853.281480275 -1141.02926475703
 219954.962094783 -769167.108109713 -1332.08559198288
 265890.877142736 -754520.007728372 -1264.66985604013
 321283.209120294 -732650.672877874 -301.776346130938
 388806.316716217 -699155.705591310 3308.68866575402
 472000.538378949 -645795.335310874 12801.4319784708
 573903.325094234 -556340.280001416 33473.3669314568
 688319.309406621 -401853.243652932 68778.6221409695
 778897.805660081 -148404.801621312 106274.282842325
 774436.116137521 171791.385402801 103616.706776555
 679674.152326352 416957.056641266 64729.1246388263
 565734.415479896 564818.636477482 30405.2467403103
 465547.326451438 650496.614541178 10947.2053230552
 383950.766608052 701838.376866895 2168.31223099840
 317649.497752833 734232.823008627 -978.873921761392
 263144.259802467 755481.270703485 -1774.30247130460
 217850.601962410 769765.065298663 -1690.99685392989
 181070.152266015 779237.716065735 -1477.09817521419
 154808.292102834 784877.441175316 -1339.78740526543
 95206.8343685294 -794313.871183333 -1064.30036612542
 111981.484661949 -792122.940946962 -1180.47382015163
 136079.157343223 -788340.565702472 -1270.98570647215
 166687.525472875 -782441.287563586 -948.877003584540
 205607.074669987 -773126.482788617 1082.80032892774
 256483.478490587 -757730.340021667 7807.50100983997
 326524.360656066 -729852.093308615 26415.2189311550
 427063.318657981 -672746.070291172 70920.0025706260
 568474.798667416 -539607.847296942 160186.686137146
 715023.599807002 -227601.088883668 277378.795256602
 706655.805243347 261622.008260401 268684.755261015
 556197.688861739 555145.793596425 149857.528196134
 418038.903657228 679010.651151921 64714.8410436719
 320592.814536348 732586.465441744 23180.1190513800
 252551.962551227 759064.748554461 6181.72415084112
 202906.452452034 773840.390635107 146.202037409576
 164765.433526141 782847.434581748 -1498.69400424633
 134664.483875793 788582.637993176 -1702.89112704557
 110906.211123820 792273.648613701 -1509.31987755556
 94336.2589117274 794417.231939153 -1389.91103116474
 33520.0438347249 -799296.720725721 -1076.52144730496
 39566.7163503883 -799020.098992961 -1164.62978105117
 48290.0842597591 -798540.274289919 -1223.96861299678
 59696.1284279003 -797769.390616189 -609.628242561721
 74546.9444439504 -796515.964844172 2251.84866900997
 95155.5601344832 -794231.068904259 11934.3438316202
 126089.622412918 -788993.369780688 39885.7062352284
 178174.649131418 -771527.501200970 114013.636454083
 272518.802989974 -693870.818235728 290304.649666165
 411031.630591218 -352414.200698320 588945.863216380
 401554.214335005 400012.136135762 564574.622077456
 263038.617277177 706054.868464459 268881.402366446
 172994.452732041 774164.125008559 103647.609107372
 123270.358685004 789657.502395561 35290.8993945287
 93484.8849157889 794458.809969168 9786.49859019410
 73473.5936015163 796617.977060043 1195.68726845620
 58960.3699238406 797823.331300828 -1267.60028926781
 47763.5326890875 798571.188922465 -1643.52305058216
 39171.8276286096 799038.940252223 -1529.66690499209
 33204.2400274460 799309.400402103 -1400.31176135737
 -28486.7702795433 -799491.958534737 -1054.58870209144
 -33630.5058841540 -799291.967393526 -1157.55525233804
 -41035.6616790416 -798945.985990770 -1177.25944460009
 -50714.6546374554 -798390.683434368 -583.446832790494
 -63291.4915379446 -797488.863956650 2387.25030801805
 -80782.3724391749 -795817.223992634 12212.8743446157
 -107169.206298844 -791737.411638441 40824.4073237746
 -152146.863086807 -776632.072964926 117021.174558480
 -235170.544595246 -703198.177253575 300345.032357831
 -360011.549883495 -361626.181843635 616131.632490718
 -351360.718944574 410152.171265878 590187.124214547
 -226729.836283734 715075.372316626 277958.258098208
 -147625.971025509 779032.363892611 106372.687691278
 -104745.129938515 792291.302499086 36096.3950896063
 -79359.4523871805 795990.274581341 10077.7025521015
 -62383.1677663246 797562.991252160 1270.96984471824
 -50094.2760527591 798429.158171060 -1201.20314785691
 -40593.0060465947 798967.788851811 -1637.14304462739
 -33298.9758240331 799305.279395109 -1499.51331368945
 -28222.0162487051 799500.837769551 -1388.59808598724
 -90289.4533716354 -794887.903783503 -1017.36351300843
 -106232.693401835 -792914.484689628 -1111.22543760690
 -129153.658278690 -789504.819772457 -1213.30511021249
 -158298.533940313 -784181.698102717 -799.070139695331
 -195447.675622996 -775756.706742750 1318.34639281769
 -244226.296066810 -761762.425547641 8457.14687474024
 -311936.065988566 -736144.772566108 28049.3236847580
 -410471.265699888 -682515.107954222 75408.6695875816
 -551993.808943060 -553029.960903075 171641.187458242
 -702601.836243317 -236630.897453522 300593.542974330
 -693879.576797292 271818.391075176 290939.676182047
 -539531.454918824 568465.444116962 160476.939147286
 -401529.070893192 688508.102647190 68782.2492858262
 -306153.456124961 738688.104560918 24697.0743801961
 -240435.656165698 762984.605703012 6722.10565141160
 -192862.093706080 776404.566414354 402.569555441754
 -156466.957973865 784548.348424205 -1407.14152039776
 -127809.746843079 789722.773157545 -1615.60151799900
 -105213.411419941 793049.796143727 -1469.31745040702
 -89465.3035160353 794980.608623290 -1338.42434492622
 -151454.265918842 -785532.119452608 -945.855843986594
 -177297.834786429 -780105.343091481 -1063.70116427150
 -213590.198928124 -770959.002661812 -1201.30618491716
 -258463.179379274 -757096.779953702 -1118.34202850439
 -312764.712321737 -736327.531840884 24.0709781394294
 -379330.568315245 -704338.714973949 3910.82222542811
 -462052.332070579 -652920.375628215 14234.6590281714
 -564657.552297445 -565525.475751534 36644.0296563878
 -681833.191710219 -411604.648949949 75399.6793431169
 -776399.294440248 -153289.582805103 117074.503612539
 -771679.125026908 177437.722402471 114136.684139368
 -672867.862137841 426869.718340024 70930.1322877681
 -556339.992675071 573909.462856137 33372.7582690052
 -455578.367653490 657494.598433571 12214.9071571784
 -374510.701644961 706918.753666520 2758.63516467145
 -309185.143003732 737837.389388200 -730.866996749038
 -255772.005996051 758009.313852423 -1600.33175786991
 -211536.196008325 771524.373205476 -1606.02871254385
 -175692.734524203 780467.903552996 -1383.67590110976
 -150133.895958017 785785.089700653 -1267.31551112760
 -212003.600955995 -771397.262959684 -857.834483308490
 -246336.120564895 -761129.158488189 -959.064177819640
 -293346.769616559 -744275.698917754 -1164.79870320152
 -348965.795680909 -719875.888263898 -1256.55921270076
 -412642.957631585 -685364.829057363 -916.846895302018
 -484625.229704271 -636504.353590135 771.099789583620
 -565277.123456193 -566069.741510122 5178.94233930341
 -652214.690857825 -463048.690101746 14209.4202657597
 -735713.334659455 -312956.657166390 28000.3560602831
 -791601.115866370 -108193.373207153 40766.0073244334
 -789102.935762977 125422.892869875 39820.2801899236
 -730029.495464261 326136.381285586 26305.8273798841
 -645859.012257389 471917.285682034 12657.4784381318
 -559509.594718148 571779.906960593 4092.84918720373
 -479796.154670956 640152.832971251 -20.0460738827792
 -408721.559917237 687709.675431416 -1445.26012784284
 -345815.474699767 721393.624146904 -1701.91021213193
 -290815.398746358 745267.839068808 -1500.63376830057
 -244283.882769680 761789.821410714 -1285.54035312578
 -210271.869451515 771870.706819883 -1163.12971743326
 -272323.691702678 -752222.874753454 -744.066578809175
 -313626.428526782 -735960.424018736 -847.117286969089
 -368228.559151050 -710215.931550772 -1028.97862484850
 -429886.494435064 -674682.167746733 -1254.76169048077
 -496031.020572208 -627655.639773124 -1274.55524894679
 -565314.289277992 -566055.727521309 -817.115928209546
 -635806.257157162 -485540.765842344 753.700889999089
 -703843.051898784 -380249.895457166 3869.79309777452
 -761439.796621952 -245232.678031693 8388.66769658545
 -795733.606250808 -81615.6058412797 12121.0876676222
 -794316.799088363 94451.5559183647 11820.5867290490
 -757859.820935479 256104.670100232 7673.96667276885
 -699295.083728936 388556.806621904 3161.31307026436
 -631162.589501983 491562.585221813 102.094070897496
 -561012.592440120 570318.477746196 -1305.78132805931
 -492232.767182995 630637.730885311 -1719.09720407546
 -426613.901100732 676755.514678981 -1597.72938973981
 -365447.273038752 711650.491765434 -1366.82060087034
 -311266.841380267 736961.093125180 -1140.47222319232
 -270271.420665109 752962.319811255 -1050.76929812520
 -333071.754011498 -727367.039459390 -629.752161712179
 -379565.317165425 -704222.746945904 -701.918140731035
 -438686.665279865 -668994.192992094 -882.863799752229
 -501811.215293778 -623044.397047458 -1087.89390609307
 -565332.454985862 -566036.694545609 -1294.51440277148
 -626982.069607056 -496882.111565681 -1285.14484904707
 -684855.066709119 -413488.390350096 -942.681566918117
 -735925.974060999 -313708.399947702 -22.4638187984497
 -775547.084533607 -196278.268004608 1249.47210148873
 -797423.900160031 -64108.1582304802 2295.10388872181
 -796569.591978544 73974.9643651245 2142.37772454859
 -773252.391464995 205133.665062913 958.410935992483
 -732749.732038578 321057.075076404 -429.814817736320
 -681310.687154447 419301.852112438 -1305.52066834798
 -623412.142286118 501352.683418980 -1669.63433724634
 -561927.908208199 569415.863716844 -1612.49011095174
 -498668.824941887 625561.654102069 -1421.24880374138
 -435845.904703048 670847.952808701 -1171.13874353824
 -377029.088265773 705583.485664915 -1005.66317924769
 -330782.857905507 728410.485772090 -930.125331168549
 -394650.933641304 -695881.006666489 -514.914441670214
 -444402.355212541 -665211.404993077 -577.363562961135
 -504678.626728435 -620724.567018911 -704.004748539047
 -565344.064778718 -566025.854347425 -905.886165537936
 -622400.597607092 -502609.489023010 -1094.36847745270
 -674176.452465724 -430679.111088493 -1270.51672885171
 -719450.798306020 -349841.244568367 -1285.46321829295
 -756826.797228608 -259252.477766861 -1162.65576615048
 -784016.945201245 -159112.183385717 -861.821059325518
 -798349.668295162 -51355.3152540862 -662.365577245328
 -797813.737279466 59099.4494971595 -704.043537758274
 -782521.468570734 166310.089560128 -1051.34980087111
 -754633.287731500 265568.666517829 -1372.73868208245
 -716834.883857035 355169.381090139 -1568.44563778994
 -671354.552813379 435064.051418294 -1528.26053040310
 -619519.701846779 506155.506492824 -1393.65371328612
 -562498.596343875 568853.183045102 -1176.96670541005
 -501934.875130900 622944.922108865 -1002.56975220844
 -441803.757306732 666939.794731352 -866.160122054842
 -392201.512716526 697264.144509348 -828.374623104232
 -456578.439066267 -656913.959735195 -422.474661179267
 -507283.663528684 -618597.666530484 -460.086900564596
 -565345.989510390 -566024.370816844 -569.021891858818
 -620104.235674257 -505440.634948669 -708.125364788096
 -668495.280369678 -439446.541678733 -892.821407781289
 -709793.526720968 -369042.074627269 -1047.17706804647
 -743981.006717895 -294093.247842170 -1192.98645055929
 -770745.721697825 -214358.320226826 -1242.18920955198
 -789399.177225996 -129797.281923932 -1266.72810065057
 -798913.438066646 -41662.5759364416 -1244.28407974306
 -798567.798339257 47830.7427737239 -1300.57729686412
 -788412.460834069 135661.166827493 -1356.25092433336
 -769238.639102942 219704.120232935 -1419.74072484493
 -742092.716549253 298825.213386840 -1375.45950857541
 -707641.893007986 373150.494323637 -1288.35014667185
 -666164.459316959 442971.377651980 -1127.70743054833
 -617652.421026873 508433.395254133 -984.576049168046
 -562818.161076673 568537.601081372 -844.818862585709
 -504727.348299684 620684.873068046 -769.560181635948
 -454038.594277180 658671.686543594 -751.167505752382
 -516159.882904868 -611210.967889170 -357.787110934563
 -565334.115560168 -566036.383038907 -388.407048711486
 -617980.683824092 -508035.097495075 -462.745584460559
 -664710.195368077 -445151.676611469 -583.938123297314
 -703808.571864112 -380332.728587513 -713.957824352223
 -735655.139833219 -314341.796967339 -865.977084465236
 -760897.648443125 -247050.187473363 -986.642335369171
 -779962.778523606 -177923.727142025 -1100.65327263535
 -792832.901928798 -106839.349315149 -1158.90339327004
 -799271.121402884 -34120.3679650995 -1214.48808251830
 -799042.307628106 39113.6294245288 -1230.69638501581
 -792168.655935665 111656.854401112 -1251.96578575343
 -778919.874597297 182434.501122146 -1217.27467937471
 -759542.740566949 251184.135902152 -1164.09756301587
 -734044.475850274 318084.250398642 -1056.93993702841
 -701977.936542495 383700.494327027 -952.502354505781
 -662674.888416996 448175.514830625 -836.760316059862
 -615745.789949109 510741.175144648 -757.741257052469
 -562911.032163093 568445.832633148 -710.796094270074
 -513597.344384237 613365.508260148 -721.885191328203
 -565304.185680111 -566066.306451509 -338.161047801398
 -610556.724610648 -516933.609845824 -359.227619139262
 -656382.088788542 -457342.728733887 -426.605008793758
 -695455.708900569 -395399.903194094 -522.983466810012
 -727042.666520044 -333779.189907596 -642.996154045030
 -751977.503658853 -273000.458778672 -763.870168985888
 -771227.364391542 -212620.715598778 -885.275063960229
 -785420.425005111 -152032.205635384 -982.056225880093
 -794830.402017038 -90793.7405884392 -1062.40265198061
 -799475.525095427 -28942.2881646697 -1108.48057474905
 -799312.133316925 33148.4420947797 -1137.68142992282
 -794351.790010392 94889.1621657655 -1131.64074122004
 -784655.449911010 155931.415368127 -1103.91405611100
 -770209.800899289 216277.094431915 -1039.72244664890
 -750732.978122077 276403.816733124 -962.109827242265
 -725580.014032928 336946.413062234 -870.609252382450
 -693763.986094225 398360.268948769 -792.288909997009
 -654432.920264608 460127.173326995 -732.966608230567
 -608316.246862989 519567.927556405 -715.861209626276
 -562772.841182827 568582.601959517 -744.295610637029
# End: Data Text
# End: Segment
