# OOMMF OVF 2.0
#
# Segment count: 1
#
# Begin: Segment
# Begin: Header
#
# Title: Oxs_TimeDriver::Magnetization
# Desc: Oxs vector field output
# Desc:  MIF source file: C:/Users/Victor H. González/Documents/GitHub/Intro-to-magnetism-in-python/vortex_dynamics/drive-2/vortex_dynamics.mif
# Desc:  Iteration: 201, State id: 1303
# Desc:  Stage: 28, Stage iteration: 6
# Desc:  Stage simulation time: 1e-11 s
# Desc:  Total simulation time: 2.9e-10 s
# meshunit: m
# meshtype: rectangular
# xbase: -4.7499999999999995e-08
# ybase: -4.7499999999999995e-08
# zbase: 2.5000000000000001e-09
# xnodes: 20
# ynodes: 20
# znodes: 1
# xstepsize: 5.0000000000000001e-09
# ystepsize: 5.0000000000000001e-09
# zstepsize: 5.0000000000000001e-09
# xmin: -4.9999999999999998e-08
# ymin: -4.9999999999999998e-08
# zmin: 0
# xmax: 4.9999999999999998e-08
# ymax: 4.9999999999999998e-08
# zmax: 5.0000000000000001e-09
# valuedim: 3
# valuelabels: Magnetization_x Magnetization_y Magnetization_z
# valueunits: A/m A/m A/m
#
# End: Header
#
# Begin: Data Text
 694266.717094315 -397482.651811621 -1125.63043868561
 717446.781761011 -353933.686588337 -1029.97027047322
 741241.098316607 -300932.863059559 -1022.78891671238
 761191.934360208 -246141.600384295 -1073.13802613202
 776545.877944583 -192289.006665817 -1198.90064237151
 787612.986838819 -140228.492783620 -1323.92389080158
 794917.714627972 -90019.8561925156 -1500.82034956718
 798921.689196000 -41490.6088362872 -1632.14907488844
 799978.176326432 5627.58825912957 -1802.12425221389
 798332.722905606 51587.3749295414 -1899.02238009556
 794126.034648459 96745.6274327545 -2030.92741294663
 787376.874620566 141539.050309529 -2086.75590949407
 777929.163202966 186605.038994997 -2185.51138378467
 765406.345406957 232697.557426567 -2230.06243763051
 749135.070920102 280697.703087651 -2333.45213139321
 728130.685286350 331390.748696901 -2424.21586061514
 701146.840662396 385209.487160471 -2599.77512620894
 667081.550373807 441581.493102273 -2826.67657255561
 626281.051891500 497756.926476157 -3175.87573532722
 585187.318423055 545474.953589412 -3588.50434907050
 657107.699041260 -456298.515123368 -1066.28181560222
 688989.173718192 -406562.295728216 -1009.05466976243
 721067.802191980 -346497.067194536 -1003.52758431315
 747747.070066859 -284381.902082433 -1119.36339360823
 768311.105055430 -222927.264492595 -1216.79675893000
 783218.949373508 -162990.865235954 -1433.59404770895
 793104.591037953 -104798.381289252 -1551.43600361954
 798541.517197344 -48251.7408587359 -1792.99087174308
 799969.758417075 6698.94319525593 -1873.44020275267
 797725.556797067 60246.1599719324 -2082.36438843169
 792038.946765062 112560.638312256 -2099.88333710181
 782985.763712397 164098.200380921 -2252.65520153201
 770455.661985134 215390.613798766 -2226.29792230695
 754041.979775803 267236.251500440 -2340.64516337094
 733045.556359914 320372.941461708 -2321.78383079885
 706417.691326236 375457.170026394 -2441.07703340334
 672976.100504306 432547.032125642 -2496.62758848615
 631861.021528401 490657.125139763 -2689.79974499550
 584168.132508917 546570.331795833 -2909.52945287522
 538355.456752298 591745.697126583 -3229.87882088091
 609422.024967108 -518269.912159871 -1045.76995064011
 649416.847171915 -467179.574529130 -1001.87427874216
 691370.251458609 -402499.667892557 -1092.12840040455
 727227.699548825 -333374.371699768 -1183.76632403205
 755461.992074368 -263201.661462726 -1436.63992975319
 776257.766143504 -193446.085388418 -1578.78111041811
 790225.725795885 -124658.292224136 -1900.64992277392
 797946.200662704 -57252.1909906459 -2011.83367239052
 799950.737952854 8570.07067678614 -2317.48511962790
 796704.868532150 72497.4095138001 -2340.52792291342
 788596.193058151 134571.377634525 -2566.82990042604
 775888.394083369 194912.757183264 -2493.39406229680
 758572.673746551 254087.718293030 -2632.50026592498
 736371.600029356 312650.844318260 -2513.20856380800
 708622.601886196 371277.850393373 -2601.13500480334
 674482.980779629 430193.487094218 -2504.45609708429
 633101.312659775 489056.258262105 -2589.23987702334
 584450.504440904 546269.988278891 -2589.93524080980
 530956.125960639 598396.200979766 -2752.99071074352
 482698.768458868 637960.227241822 -2940.64378250164
 557757.561027442 -573502.774745069 -1034.63830756579
 604012.020345016 -524564.904904348 -1067.62419733797
 655109.245010927 -459162.882684728 -1150.76751135132
 700899.531363454 -385665.435640048 -1420.80507544954
 738339.023975423 -307981.961941112 -1611.45708129204
 766772.288030966 -228158.293384284 -2012.82580686862
 786262.434509120 -147602.617104627 -2202.61291576413
 797157.843325098 -67323.6796399266 -2625.83034842575
 799912.762360650 11495.6115344999 -2724.61520284688
 795140.894995952 87986.2003824656 -3063.60038082449
 783547.057437013 161384.555536517 -3005.66399987456
 765724.211556291 231638.153792776 -3193.35935529253
 742060.603128426 298893.063600623 -2999.63599633939
 712529.102548774 363720.881725697 -3065.65127170614
 676878.912604849 426411.695445365 -2829.07375084283
 634665.492334006 487023.276542714 -2835.65619097915
 585847.510729522 544771.240126720 -2643.88025796934
 531365.664510472 598032.991137671 -2659.34019547053
 474807.987693885 643855.943830463 -2626.48363191731
 426418.831118306 676874.649484027 -2772.96836861045
 505104.013322124 -620377.977768453 -1049.01182454895
 555424.352750232 -575762.630294858 -1087.16509010461
 613952.759955580 -512893.991085754 -1327.57337041828
 669282.728976547 -438244.453286108 -1558.15842198168
 716842.163559727 -355152.429820877 -2015.97007331290
 754458.823623143 -266057.473172199 -2303.13404011635
 781079.357453451 -172936.341582078 -2838.85898068320
 796174.085648329 -78085.8080710045 -3071.14310088938
 799829.358305405 16131.4973417299 -3573.84754523237
 792780.181165761 107174.011462867 -3649.05710294627
 776258.869441056 193407.547310458 -3960.84049749348
 751643.166129408 273894.700632688 -3774.09277699580
 719973.011269788 348746.505799146 -3838.97590512954
 681967.314276630 418220.604962351 -3479.63263101674
 637922.616133050 482745.413659594 -3406.08523002970
 588235.392788898 542189.951400488 -3029.73114746310
 533605.390514584 596034.186150696 -2921.66963518341
 475896.441015625 643051.720923978 -2657.37565529564
 419013.605705612 681484.145597281 -2637.71361739249
 372426.101258652 708019.576515193 -2660.52110067578
 452455.867829092 -659759.524391179 -1028.41730240243
 504763.535933295 -620654.832029209 -1162.87183851743
 568579.679401980 -562774.593641007 -1380.18960299454
 632411.743523555 -489951.036964426 -1835.21960000747
 690422.261852782 -404119.204223220 -2183.83059761572
 738759.465472334 -306963.874628388 -2762.57998224523
 774361.728667217 -200884.076043514 -3082.39641586538
 794998.308762919 -89241.0997911738 -3703.40008087209
 799655.365246497 23134.2761648411 -4012.74205769127
 789129.071557873 131354.601118695 -4612.72014727885
 765731.126893205 231590.362658686 -4663.17815229863
 732196.926502513 322279.388851724 -4863.77853452497
 690963.418861663 403174.280907874 -4478.05866636237
 643688.742311555 475022.141082022 -4332.26305986924
 591666.799530698 538438.644148517 -3771.58065105453
 535912.954915152 593956.966594574 -3525.13657639265
 477874.057381674 641581.796230192 -3030.51606437347
 419593.942810486 681126.166722708 -2840.45108731217
 364772.827711248 711992.993943663 -2600.14204987334
 321396.252158189 732596.409897721 -2636.15319002834
 399478.235136374 -693120.589563577 -993.969500275290
 451841.129852130 -660180.537556508 -1118.57299797881
 518712.192292719 -609044.716850704 -1481.36529114980
 589459.376945692 -540864.472059811 -1807.15086793301
 657903.328266318 -455146.058769016 -2296.92035849145
 718480.952684522 -351822.236042476 -2496.96928563749
 765533.850243467 -232270.491607686 -2888.40089616729
 793585.144479236 -101058.524099267 -3129.40389659129
 799277.631982674 33752.7765941661 -4002.13497453338
 783346.432000199 162315.179244187 -4706.38496986152
 750181.762169514 277842.724043681 -5544.76367655923
 705242.313590740 377627.175092787 -5567.38292394684
 652936.820991626 462214.908178052 -5557.55803428695
 596399.747386149 533182.180679861 -4909.53390915431
 537569.279138164 592451.610729570 -4512.10270413524
 478046.752009568 641449.196403208 -3772.44307866312
 419214.859892722 681357.021082338 -3392.79632888801
 362963.011108447 712916.265277890 -2872.50227409679
 312064.283063859 736619.709674820 -2699.36185491319
 272958.919602390 751988.431544092 -2612.85922941933
 344967.901954277 -721800.810147447 -858.540478435622
 395518.394625312 -695387.734418523 -1048.01397359874
 462933.152012818 -652450.216877527 -1269.35572079398
 538549.796650192 -591575.600971356 -1557.19729523122
 616811.487798482 -509452.262305161 -1407.46295747487
 691351.982667216 -402531.323831855 -984.579242267998
 753280.131085760 -269386.421323560 -10.8584515937937
 791812.076742218 -114164.678657932 247.532034466961
 798458.597763426 49632.2725168610 -710.761899026122
 773728.935643058 203307.125614070 -3121.99026352267
 726598.931400559 334707.486637575 -4989.11578569426
 667225.155679104 441329.789178119 -6213.59903715657
 602994.706150064 525699.283076531 -6135.80702270223
 538071.150304399 591984.310515351 -5832.09342911140
 474786.917572200 643858.001081040 -4925.17473960401
 414300.965155902 684350.774128141 -4327.61147764354
 357615.467766543 715610.817683494 -3512.09744708686
 305671.842516845 739293.642737529 -3103.94913503062
 260318.932382067 756456.729408752 -2696.28924183683
 226270.008125986 767329.688443913 -2651.91538946404
 287296.939431362 -746632.489273329 -628.136039000622
 333906.303985955 -726984.225026969 -718.832647602829
 398862.067644115 -693475.601446341 -800.745463560124
 476246.882177389 -642797.646294037 -305.180541184536
 562747.009051818 -568607.505752121 1143.76815184006
 652716.558949348 -462537.259656505 4514.10043909388
 734670.093260349 -316503.968219771 9224.54172139108
 789148.329141482 -130672.009617025 13028.4502476534
 796489.800632627 74030.5974557232 11111.6213284185
 756749.343050628 259437.867752176 4735.45865230774
 689316.802710847 406004.464265688 -1649.39286592699
 612597.359421914 514488.203553161 -5134.55294441212
 536763.228537665 593163.042244835 -6545.36512920588
 466123.970823552 650146.062580188 -6208.15070401520
 401827.537706764 691739.264426762 -5605.35376592131
 344035.211225138 722232.037226181 -4545.08981153356
 292440.292013570 744623.163724980 -3875.51947739152
 247100.319127050 760875.565180573 -3131.54889056298
 208650.698310771 772306.243357331 -2820.02938176298
 180399.323822622 779390.169686676 -2654.68644385617
 224768.258768734 -767775.477933458 -212.918109388633
 264855.848780868 -754884.986495897 -191.127328346933
 323241.420318432 -731788.793435641 382.089690755473
 397515.029787951 -694245.351829681 2278.71796579440
 488070.639019449 -633823.046653348 7442.90657025303
 593300.146475028 -536351.445320609 17946.1220102045
 702142.663712622 -381825.190138277 34716.0477360685
 783147.099976297 -155456.011039728 50140.2874975082
 790557.845567364 113152.761324212 47061.0817618434
 723860.965294453 339535.100855515 27225.3229552321
 627689.359071171 495905.383873462 9160.71799249137
 532386.315952286 597128.871291551 -1386.23837450787
 448481.761539187 662445.612630578 -5469.90614237579
 377200.793027619 705462.667953088 -6479.64997874369
 317115.716289276 734441.477396785 -5773.97277166697
 266218.865474304 754388.981498466 -4977.97742873434
 223017.855414733 768275.710507009 -3933.04095634508
 186400.662047330 777974.085539761 -3333.97913748306
 156249.130568916 784588.012991504 -2803.40266522375
 134465.211352914 788613.878524577 -2693.98111333848
 156103.095000056 -784622.014594348 343.431667301709
 186469.909894965 -777964.326192443 692.730612330538
 232803.912440562 -765374.132841576 2185.20694044312
 295969.558350796 -743205.217456224 6930.02709103194
 381065.180214978 -703156.357777741 18985.9143700786
 494383.467697295 -627280.629540802 45869.3652724059
 634390.399010572 -478233.259279086 94030.6937255589
 760134.244465801 -200355.828947765 148504.115084600
 766259.584389344 180545.905764857 142300.475203064
 652089.728208131 456171.028074623 81773.9537431509
 521220.229624833 606014.582871769 32799.3532953254
 413631.797190155 684728.853662802 7425.18113367664
 331267.701585298 728184.661686501 -2967.88997627123
 268309.837935517 753642.070814232 -5784.45899381551
 219230.523842256 769351.930532145 -5965.26632361721
 180239.880560768 779415.676548263 -4978.81574815206
 148674.411784989 786052.541006468 -4161.97761436057
 122988.809346971 790482.700083690 -3294.48688169977
 102383.906992750 793416.174388819 -2882.67360458631
 87786.7993053882 795164.354124644 -2669.79348506067
 80939.7596722610 -795894.299593451 1009.54388006125
 98142.0330876448 -793955.479405553 1684.65525311100
 125792.771734079 -790035.510998593 4479.94873299848
 166506.398337898 -782375.989454911 12783.9914342619
 227597.658703299 -766131.225737235 35245.5770720187
 322849.759435362 -726394.274547218 90107.6619247651
 470442.670669455 -613136.788962086 206753.407794540
 646357.862575158 -286315.459531662 374492.952030405
 648365.277220436 298715.819025430 361097.392345656
 478536.773139756 613541.542531131 185928.298925985
 335441.550017818 722721.889073148 71777.6955340869
 241828.844905318 762300.810176914 20403.0530896512
 180518.310479175 779366.225840330 1193.98540391746
 138458.105492044 787912.660835449 -4794.98892146557
 108404.263942391 792601.618849715 -5584.74313817299
 86173.7529501050 795329.057063318 -5076.93739054679
 69398.2203842431 796973.939862071 -4052.92341766444
 56492.8197259411 797995.716366675 -3376.08943155137
 46654.1330067527 798633.538240083 -2804.18820927011
 39868.8692941448 799001.508266619 -2657.63971879049
 311.916816724969 -799998.326077340 1606.54329315057
 1547.15023056124 -799994.404490287 2561.07602285219
 4793.74602852028 -799961.758391726 6181.02821806440
 11524.3940814644 -799732.371079727 17184.9640166168
 24393.1691695812 -798202.076836408 47732.7752378607
 48632.0094494473 -788086.429566785 128665.097013854
 94776.1586199507 -724222.302783680 326373.307591090
 166373.707816968 -387073.788379574 680068.872759751
 162932.967353646 431209.827346036 653843.202113120
 89807.2536073863 738003.624129056 295440.870517059
 42611.0948462441 791852.742168906 105610.270881150
 16326.9963655904 799238.321423610 30846.9570241249
 1071.94444547656 799987.440290611 4352.73619484905
 -7762.43710975413 799954.180242330 -3613.04344537925
 -12469.1274124398 799885.207867248 -5308.02192356906
 -14288.8592389905 799858.041623410 -4789.75490094987
 -14206.0239283963 799863.600475113 -4050.86646717217
 -12913.2710082365 799889.287667913 -3221.01008793389
 -11137.8989235560 799917.598210467 -2789.85318026213
 -9554.73829718577 799938.791996015 -2576.05047099662
 -83435.1241958601 -795634.612466589 2035.55780130812
 -98993.2089930841 -793846.143554530 2940.22734680743
 -121647.711614953 -790670.909674519 6430.15188891329
 -151746.464780195 -785301.508589611 16569.5815757233
 -194040.880512554 -774872.261389261 43830.5283952403
 -260351.084044820 -748101.507579314 112077.863087427
 -372668.140149458 -656301.693264485 265304.626299112
 -527100.687766672 -324492.133792995 506823.164488730
 -529432.920755914 350262.779016462 486843.679280657
 -384130.838417375 659979.343241745 238475.922203812
 -280968.200427535 743526.500172934 90692.9649372000
 -221827.182810822 768137.384402440 27525.6180601460
 -185015.285633866 778300.943558905 4121.32710868411
 -158598.598610214 784114.116864988 -3396.50583918233
 -137061.628121409 788156.355651380 -4865.09435098128
 -118063.255211157 791226.734854068 -4617.55575119988
 -100646.118803266 793634.755278761 -3772.79517865679
 -84764.3169515012 795490.457606679 -3153.16166123634
 -70895.7796224013 796848.045385080 -2642.15777506093
 -60617.0970515218 797696.249241992 -2502.29700576880
 -167502.753400861 -782264.419136794 2281.70017856151
 -198227.072260523 -775046.718718753 2934.55726060970
 -242604.509060034 -762308.085152622 5425.44880000808
 -299926.588439905 -741545.554940913 12418.9973094706
 -374763.916730983 -706166.892347055 29670.3028187149
 -475666.222671739 -639624.125568786 67989.8713012852
 -608081.384566374 -500831.225629714 139302.236802146
 -737578.977641330 -212710.975356106 225236.082155200
 -741029.824499734 210554.742040968 215734.790439453
 -622401.053590297 487461.332692012 122467.863620689
 -503276.635702519 619697.780908758 51839.0614567505
 -414551.081949731 684023.014875936 16121.8973555627
 -349725.137717315 719507.246464109 1284.65335437399
 -299489.961366345 741817.218321977 -3602.44942083820
 -257769.116825959 757319.911744383 -4651.20266638048
 -221151.686160748 768813.539675847 -4203.91714388244
 -188108.879065996 777561.683331913 -3588.62516509294
 -158271.345704727 784182.164488032 -2917.88068266775
 -132442.606202171 788956.544379328 -2554.82747123334
 -113330.839220235 791928.285508366 -2389.87309662803
 -249773.354790132 -760004.697745181 2476.01335571971
 -292369.811398899 -744655.726343476 2782.55394277979
 -351348.590215023 -718704.779559823 4196.18776766963
 -422370.889973303 -679366.584889160 7992.16110941928
 -505684.354559606 -619680.363935603 16720.6490984333
 -601649.309976803 -526183.837708235 33892.1338819330
 -703293.408494560 -376378.523153136 60972.0335659644
 -781319.757275690 -148228.937685871 86992.0624147755
 -785235.398096669 128882.225472299 82430.2222080706
 -717613.176805200 349898.338518560 51014.5192812799
 -629871.177662418 492691.728039321 22741.1668958806
 -549081.380402381 581782.931886932 6185.29388643035
 -480227.931136068 639827.723400850 -1272.21242649510
 -421051.415844338 680220.887705185 -3905.01537120070
 -368370.660457646 710130.358693430 -4234.40384683456
 -319937.458014878 733229.132406021 -3881.02436105429
 -274637.898683397 751374.418194042 -3241.64932320596
 -232629.566414208 765425.230665526 -2775.08388417289
 -195464.707573848 775749.803936414 -2406.19735000713
 -167623.517573288 782238.448029922 -2316.63119543684
 -329043.449305952 -729193.374296528 2726.05041886139
 -379636.114224108 -704179.560435002 2750.89846932216
 -445846.219732259 -664236.577012676 3304.25618510668
 -519341.309364887 -608489.920260379 4961.98837995460
 -596800.668319802 -532686.744623316 8590.36644457965
 -674770.759505330 -429481.578267505 15165.6205100391
 -745176.066380580 -290044.975904390 24218.6301467648
 -791505.383847360 -111956.145016150 31385.4892229681
 -795034.466729852 84161.1995626290 28932.4938392492
 -757591.615840793 256365.311441416 18214.5737606489
 -699741.462544647 387692.358371217 7518.03541109577
 -637436.480124440 483398.678775782 671.687719976267
 -577188.752895835 553936.766060001 -2683.79163444816
 -520050.097797310 607892.872977142 -3761.75020491223
 -465141.628316788 650867.491980286 -3843.62980785021
 -411370.925273529 686121.142319633 -3426.35398103873
 -358342.891152296 715249.134903162 -3007.88644953124
 -306813.756303832 738822.482814594 -2580.27719673136
 -259488.684441655 756743.077783169 -2353.05630974186
 -223145.896850842 768245.224307877 -2276.85018690506
 -404233.951758706 -690351.508467679 3115.60619171889
 -459002.346535804 -655216.296677942 2906.96444234158
 -526069.981026834 -602695.477551067 2921.71215516087
 -594469.903383335 -535344.995856389 3356.99015958271
 -659867.558390616 -452276.937657999 4514.09418472835
 -718918.443576746 -350875.095594132 6552.76865130290
 -766513.217384767 -228854.632270396 9112.89541441961
 -795013.579989887 -88545.3706179930 10636.0224607511
 -797828.184250323 58187.8961297065 9184.61538839113
 -776314.562874833 193154.200538063 5210.97715959152
 -739008.711640222 306373.552060918 1170.77642421304
 -694136.252699775 397708.728212274 -1621.78657321642
 -646281.502088156 471499.003870934 -2984.86304434839
 -596954.590181264 532572.350101803 -3450.96632292847
 -545982.002008457 584715.670036910 -3352.41646069618
 -492705.288705545 630263.307229772 -3108.38243697225
 -436807.990911206 670217.220299480 -2767.07248831642
 -379221.074876145 704404.002500147 -2525.39730615617
 -323410.268443272 731710.512624313 -2350.31498234177
 -278822.747058945 749834.887648527 -2348.82686168970
 -472707.163188950 -645394.871498059 3660.28876723496
 -528244.900017654 -600788.375349162 3263.99305348903
 -591221.834535754 -538932.437130658 2927.55471102549
 -650494.585172908 -465670.631703418 2767.20611212060
 -702717.723111055 -382334.555575289 2844.15869114438
 -746134.833989886 -288570.050997653 3183.57881911359
 -778480.912965070 -184268.158438766 3565.66047977048
 -796764.119664963 -71795.6356732935 3510.60006047348
 -798867.602363961 42477.3686006570 2495.40578242027
 -785789.905448761 150112.110462635 760.780704466790
 -761351.783194094 245647.078151894 -987.533600066807
 -729632.888113208 328071.606045988 -2206.78272238610
 -693276.711122478 399198.137865877 -2872.02709191589
 -653240.317667066 461809.141165851 -3066.67733690856
 -609264.978013445 518446.643252727 -3043.79142781318
 -560474.828741832 570841.229746341 -2873.45932610526
 -506091.859252882 619567.315491142 -2715.06409883801
 -446374.489386267 663884.968401123 -2562.02189487336
 -384498.954818772 701537.060267300 -2511.33725045699
 -331748.902183261 727967.119833985 -2557.01795329881
 -526559.756592777 -602259.498166311 4280.14081788294
 -580059.914957323 -550923.485642532 3715.91539022158
 -636555.474796001 -484548.290992067 3175.09116498444
 -686749.125379960 -410326.841590321 2742.60102290245
 -728581.031684612 -330399.348599658 2439.40859831625
 -761534.727728014 -245071.206315997 2227.62183536686
 -784922.740207388 -154571.385233009 1994.68605877817
 -797708.848361392 -60483.5427669481 1527.84171301031
 -799291.549341236 33653.3704143087 685.427928237134
 -790425.247260754 123400.758411378 -425.812484309451
 -773118.425370936 205634.856545365 -1485.30317845895
 -749579.322031894 279509.657935334 -2278.39923639680
 -721302.595709605 345998.709583439 -2731.00515948884
 -688745.787541236 406965.195162995 -2927.46821480765
 -651412.292333920 464384.926554184 -2943.70269100129
 -608147.874518903 519757.447175780 -2891.16299372137
 -557606.273208407 573643.916600194 -2810.87641521219
 -499121.810174258 625195.764827180 -2770.24376739401
 -434606.468124216 671646.798844905 -2792.03617249153
 -374339.600328039 707008.776982301 -2907.38649583869
# End: Data Text
# End: Segment
