# OOMMF OVF 2.0
#
# Segment count: 1
#
# Begin: Segment
# Begin: Header
#
# Title: Oxs_TimeDriver::Magnetization
# Desc: Oxs vector field output
# Desc:  MIF source file: C:/Users/Victor H. González/Documents/GitHub/Intro-to-magnetism-in-python/vortex_dynamics/drive-2/vortex_dynamics.mif
# Desc:  Iteration: 2336, State id: 14723
# Desc:  Stage: 333, Stage iteration: 6
# Desc:  Stage simulation time: 1e-11 s
# Desc:  Total simulation time: 3.34e-09 s
# meshunit: m
# meshtype: rectangular
# xbase: -4.7499999999999995e-08
# ybase: -4.7499999999999995e-08
# zbase: 2.5000000000000001e-09
# xnodes: 20
# ynodes: 20
# znodes: 1
# xstepsize: 5.0000000000000001e-09
# ystepsize: 5.0000000000000001e-09
# zstepsize: 5.0000000000000001e-09
# xmin: -4.9999999999999998e-08
# ymin: -4.9999999999999998e-08
# zmin: 0
# xmax: 4.9999999999999998e-08
# ymax: 4.9999999999999998e-08
# zmax: 5.0000000000000001e-09
# valuedim: 3
# valuelabels: Magnetization_x Magnetization_y Magnetization_z
# valueunits: A/m A/m A/m
#
# End: Header
#
# Begin: Data Text
 558592.719371793 -572689.603389960 -889.962851026856
 604673.596335398 -523802.571923927 -841.154382773952
 651355.412114290 -464473.273021265 -840.094243577882
 691218.853542790 -402760.137803964 -876.300817923920
 723500.846250043 -341387.823297603 -937.859049300353
 749092.624651733 -280818.868544750 -1001.37985962625
 768967.434072731 -220653.497819514 -1057.93932490192
 783804.940633555 -160151.919890971 -1085.16987792954
 793862.217487375 -98901.9925928770 -1084.20809182206
 799153.068792123 -36786.9343153840 -1045.99417211092
 799585.388941924 25733.9102140356 -985.725970184016
 795128.792618456 88144.1807448715 -898.081250000076
 785827.541011378 149914.802167118 -792.388291640095
 771655.445333251 211062.637789353 -660.769961650572
 752377.036532267 271898.010360890 -516.585629759509
 727356.430178801 333095.320930025 -361.458261435432
 695673.713431803 395016.505529803 -211.657807982909
 656481.155764421 457200.707591049 -71.4454660109649
 610557.416423351 516932.915627625 44.6224740307768
 565230.723069804 566139.748317558 122.771817312202
 509323.237887834 -616919.046565092 -854.009760111228
 558921.463551911 -572368.855215350 -831.360608509257
 612190.785858386 -514996.803968572 -856.511673779785
 659560.883666190 -452745.599666548 -928.827245989015
 699360.156318520 -388451.209367903 -1014.73875901400
 731879.074952697 -323035.266111929 -1111.97768816787
 757884.418498350 -256144.146634255 -1176.58082017058
 777737.720356653 -187410.150346813 -1214.03518183078
 791492.146100306 -116356.194578523 -1191.06873708032
 798815.754807538 -43498.0384877948 -1144.77900836652
 799422.408844501 30375.5365290400 -1067.24778274457
 793249.793449199 103700.428184518 -993.170252644291
 780495.520345923 175573.220055593 -887.197416991580
 761462.633462745 245304.041039387 -765.042304646183
 736126.359972328 313237.313461439 -606.307967594048
 704182.126783548 379641.059667484 -445.121499841641
 664912.617713278 444849.562322067 -278.760724702750
 618060.060353906 507938.719810214 -136.795053337281
 565272.983270592 566097.565785421 -19.9044300521031
 516030.799413651 611320.056638699 49.0689913442911
 449688.552541497 -661649.024484161 -879.836514464036
 500437.263167688 -624148.833966963 -882.434651536914
 558678.530868178 -572605.781939706 -957.933292676227
 613853.134042026 -513013.822000259 -1071.57056223964
 662721.427945307 -448105.815084329 -1219.60228801215
 704727.269116890 -378626.050825736 -1337.83375566126
 739704.727662423 -304688.195778437 -1420.99512388715
 767531.160529331 -225596.906813993 -1397.58808534535
 787378.303991534 -141540.443570031 -1307.37806896190
 798230.565901987 -53165.9397476577 -1160.39240862781
 799145.418580471 36951.9703860950 -1073.24108613634
 789992.074488075 126140.678678833 -1025.39186212663
 771515.642150489 211571.755495132 -1003.09213244697
 744688.458206840 292298.247733657 -913.556431513585
 710396.940767324 367879.839866263 -781.004737657861
 668849.892700722 438907.128228932 -594.831122436139
 620291.426088682 505211.216478966 -416.490952534971
 565301.496111703 566069.038944128 -248.279563816867
 507125.655206310 618727.365908363 -128.482170414800
 456322.230997998 657092.092536385 -58.5078197789706
 387832.740083591 -699703.402890950 -955.877648409487
 437236.079560883 -669942.999575350 -994.007149359867
 497316.865615909 -626637.614674271 -1111.32772341963
 557878.322830316 -573384.761702316 -1300.75501598950
 615184.872529509 -511415.070056286 -1482.81157815127
 667354.732253928 -441174.579495587 -1628.41799953779
 713493.764135132 -361834.325324121 -1602.98394218670
 752048.224733908 -272803.149438106 -1381.78552150119
 780959.170000575 -173498.989423684 -935.660715133029
 797274.367854953 -65979.7161098086 -509.336387071104
 798698.163298924 45619.4422483985 -332.312912663949
 784920.309437948 154595.735372966 -516.174707609427
 757847.874673727 256253.761151046 -780.223338302099
 720393.039790485 347897.918790795 -952.009694493747
 674777.314593950 429737.967367911 -924.722593144717
 622749.193500446 502178.075172167 -789.183706109736
 565329.565880031 566040.758690113 -584.331598451359
 504492.555117927 620876.073678601 -403.688036006306
 444016.270940929 665469.371625453 -258.008017010861
 394216.601499243 696127.313339581 -186.346461562093
 326408.320179991 -730381.039795462 -1070.15166029361
 372325.151906114 -708076.760338885 -1132.57497763404
 430720.865136980 -674149.688920553 -1316.53483610090
 493364.993049057 -629752.808587374 -1543.92681775407
 556465.748622188 -574754.521075543 -1763.83490498127
 618210.194270208 -507752.903675637 -1773.27644510256
 676530.152027980 -426971.873505271 -1404.50432470238
 728951.143579272 -329590.764776234 -397.553377122094
 770756.883847044 -214318.810380472 1128.50320891900
 795713.974059517 -82659.1705864963 2594.80333811955
 797982.512272823 56704.1054113859 2924.81388268449
 776843.434949563 191076.982511624 1965.78992153102
 737345.165503761 310357.482140424 583.256107694701
 685864.430458081 411812.841811158 -407.862515001725
 627584.840646926 496121.463033380 -872.758724857037
 565376.756137964 565993.194660529 -909.514640314425
 501576.670338505 623233.705874500 -769.177533611242
 438123.344254756 669363.591608357 -563.425408569182
 378927.679310958 704566.283413016 -407.589968717846
 332356.213404479 727694.472415733 -319.729610659367
 265963.154355962 -754494.640952975 -1198.87375009095
 306414.028881831 -738991.715913265 -1298.73629858333
 360049.564919647 -714396.265844338 -1512.00160014003
 420533.142273218 -680550.286624046 -1784.27176804152
 485780.782123775 -635620.549595079 -1883.78652237950
 554214.419116012 -576926.428358712 -1507.94733377674
 624632.060353345 -499834.761542344 -18.2385671640470
 693517.872086337 -398776.874810392 3156.77260737172
 753880.318568310 -267580.509897584 8070.68759724012
 792834.402712376 -106066.616019243 12786.0409015778
 796611.481077260 72272.8359274892 13666.9456314018
 763381.195476065 239062.814729388 9905.60483748568
 705527.858090333 377100.119239698 5093.28262245160
 636836.515025739 484186.662147455 1590.38623526377
 565470.570839895 565900.164049117 -194.533249542704
 495693.535898924 627922.936579003 -839.157925187198
 429044.894896054 675218.270689861 -874.694362204599
 367276.441984344 710709.145858341 -724.676913045543
 312529.327322175 736427.267663848 -546.813229001481
 271278.974488694 752600.499206099 -454.527331269052
 206046.200817174 -773009.173935715 -1334.21888523440
 239485.135365979 -763311.715885991 -1447.17998995731
 285117.509896466 -747465.790710350 -1702.13636011524
 339302.323634036 -724479.343163131 -1901.18554143837
 401139.383676332 -692159.107038233 -1722.03594897773
 471472.070535659 -646307.974755214 -297.443493985919
 550541.239741467 -580422.266553161 3786.26903702626
 637265.166667357 -483460.795703845 12600.2527685278
 723256.825933824 -340841.399849650 26957.4458853458
 786317.684466041 -141189.377932205 42072.0650203878
 792995.572522643 95757.0406522262 44593.8462684396
 738349.661031297 306335.713818576 31594.4377103298
 654011.001890638 460426.006355705 16658.3936002516
 565634.893495553 565696.318630521 6696.44294761326
 484050.782586432 636939.641746995 1653.07249483457
 411309.085717689 686166.694667753 -321.146086924622
 347459.547597383 720604.691725680 -860.840496367531
 291651.085942258 744942.256002140 -824.191205621406
 244781.514840053 761630.847922593 -679.327109106075
 210506.998786671 771807.277461404 -574.386145203665
 146111.233766491 -786542.689137540 -1451.04497532774
 170946.640840083 -781520.776228742 -1588.17767175952
 205919.149171993 -773042.051381877 -1814.05611343236
 248853.456298063 -760308.065416633 -1898.14407396639
 300984.550291163 -741220.025244683 -1083.81838778172
 364548.406795695 -712109.207734748 2221.56748967146
 444030.766663637 -665359.287885036 11562.7108076576
 543479.914798356 -586135.424546129 32784.8486789450
 660957.497373144 -444980.717401468 71605.5012349348
 765366.113498264 -200260.109395681 118788.050297128
 777997.069460855 136449.455329041 126894.074135594
 684699.094163081 405197.230242145 83680.0756234809
 565255.578599268 564585.580932562 41584.2838756367
 460837.303087555 653717.719598299 16796.5224433555
 376981.237525375 705590.143294054 5262.72173999307
 310190.427913719 737415.312128636 745.566180539419
 255747.893616190 758018.873628095 -634.140739122825
 211182.347383415 771622.479104687 -875.153681807968
 175047.469620046 780613.726480385 -770.331114022455
 149486.305127498 785909.271742989 -679.093316353971
 85693.1388071182 -795395.678463424 -1549.40088149721
 100812.343282830 -793620.851391382 -1677.99840340552
 122319.524496229 -790591.136030747 -1894.61252789896
 149794.788257200 -785848.894507648 -1742.53036951261
 184341.446861449 -778471.711969610 -156.946273924639
 229772.231077396 -766270.544063199 5845.94960682555
 292271.102348641 -744339.714706385 23151.4976346636
 383774.737273949 -698781.225010523 66496.2450301082
 518310.352342288 -588319.146123972 158855.157167698
 676799.902556913 -305408.049518278 297771.414323794
 699857.208741344 212382.861086309 324181.134074098
 550779.167626235 548539.249229353 189068.772048290
 406744.043751775 683731.985221687 84082.4313234615
 306975.812869321 738066.525247624 31994.6030154922
 239359.820998932 763283.797605876 10233.2987697631
 190850.182587257 776898.478775369 2227.43864744136
 154406.930330714 784957.581730851 -307.813418675882
 125690.118471203 790064.090269402 -852.868968823467
 103375.250930741 793292.407869621 -844.459250115996
 87759.9950093376 795171.435337559 -756.107907109276
 24854.6385072267 -799612.189541059 -1610.36704748506
 29262.4491281728 -799462.718181096 -1752.51519669024
 35742.5198298160 -799198.841059076 -1919.56402482855
 43905.1673218270 -798792.595752085 -1650.83436158018
 54709.1311501794 -798126.920882160 573.700229938895
 69225.8349990617 -796952.006237337 8676.60780300841
 91172.5639444251 -794093.195460785 33219.8811960433
 127908.223665658 -783320.960319446 100238.512772873
 196509.844394360 -728170.501700355 266742.575359764
 309246.840436691 -450826.378225692 584056.477042955
 329722.697619160 323824.330202365 653008.993692839
 216366.628657757 697834.121618667 325903.391679159
 138433.709885733 777444.555131394 128125.218687896
 96772.8633084301 792828.025349058 45373.2867247046
 72490.7690439453 796582.625408754 14184.8264111891
 56795.5611287805 797974.589305418 3289.23378867599
 45317.8867619414 798715.397174911 -58.7805786647296
 36759.9054200914 799154.534470951 -859.876748217647
 30016.0028607604 799436.210415516 -886.029763758531
 25460.7912285977 799594.322796923 -816.737989590545
 -36134.1670716725 -799181.841474676 -1645.06145251587
 -42550.7694469305 -798865.617286727 -1776.94585499120
 -51952.7293798262 -798308.826110719 -1982.94319464869
 -63921.1856829581 -797440.361690916 -1718.01255713032
 -79703.2623923042 -796019.637290665 356.386954373604
 -100980.771590835 -793559.386072525 8147.67114688754
 -132686.254170102 -788290.359285501 31506.6248881437
 -184534.300007820 -772653.583492069 94623.1051989314
 -277376.785670001 -708291.800575622 247759.649678318
 -421955.958849036 -426639.943663184 529085.557601854
 -447319.077675225 305089.834337766 588919.209851011
 -303361.991482636 676121.436965083 301382.322971937
 -198959.031002828 765407.178051184 120694.472823484
 -140618.685875734 786362.606582640 43130.4550304764
 -105709.481819109 792871.319891699 13437.8401066059
 -82764.2587643069 795701.479302477 3038.63572098850
 -66015.4072138207 797271.553725340 -188.761159710525
 -53465.6200369859 798210.873257137 -910.652590209259
 -43678.4175932178 798806.181673547 -938.060062653389
 -37041.6638413267 799141.532112547 -852.521364865657
 -96727.0041097751 -794129.211557065 -1637.68974471280
 -113704.247813136 -791876.344965487 -1788.38288679459
 -137831.632126032 -788034.510684129 -2012.74844408100
 -168562.768688730 -782037.506734760 -1982.69313576556
 -207036.197404268 -772745.529045439 -600.253833955076
 -257138.149417979 -757534.200686057 4680.48126073572
 -324894.526068544 -730781.034858027 20065.5431655717
 -421223.864942299 -677655.293015219 57911.6521222676
 -556562.275565606 -558273.281821796 136269.498498949
 -706664.269800508 -280405.477260138 248994.735104640
 -727625.244945063 194212.159942105 269894.682884381
 -587972.911567832 517895.783255154 161467.683915315
 -444676.822266016 660982.234346731 73246.2259601276
 -340485.812195226 723385.702594130 27973.8623746290
 -267558.308703848 753880.721908068 8741.20008390616
 -214225.469131559 770782.006565984 1595.84757393123
 -173710.043937557 780912.591643179 -587.237895585573
 -141620.374879113 787364.332615103 -1037.85580555397
 -116597.995273910 791456.871827676 -963.086109523516
 -99068.0365298239 793841.774836460 -872.159747706283
 -156711.921052147 -784499.077426292 -1603.53280024553
 -183139.669138804 -778753.390111878 -1737.52035565766
 -220238.582240752 -769084.429670065 -2026.55660065488
 -265568.764864607 -754631.364935899 -2175.81783906465
 -320190.836715611 -733126.958068808 -1640.55970102900
 -385995.899720111 -700718.182742356 1092.59942896332
 -466778.890317471 -649645.070761638 8874.09652277626
 -565121.626160290 -565624.719939001 26574.8723397766
 -677029.957247590 -422185.599208569 58221.6180660418
 -772149.952866230 -186144.823819589 95574.8651783149
 -783289.438733663 126799.363236906 101880.207356581
 -698878.321807472 383324.872624354 68052.4307802034
 -586035.708558621 543515.498853339 33956.6017204503
 -483465.469888397 637244.434754960 13441.3466372531
 -398643.271980064 693591.650048077 3763.60048535462
 -329718.269788343 728893.585637495 58.1747026365773
 -272791.644325980 752052.957173552 -1033.63070935778
 -225800.017189004 767471.893404710 -1115.82760148132
 -187499.733150769 777716.464377079 -975.246228661027
 -160314.583228143 783771.967778593 -858.445606067998
 -216110.903849167 -770255.621791224 -1534.38473408313
 -250820.450588973 -759661.980291589 -1666.51306753633
 -297995.921635581 -742424.871448252 -1934.15190881646
 -353683.125909954 -717567.560138474 -2245.68107305897
 -416683.748484380 -682912.705675479 -2211.37423404345
 -487477.564509535 -634321.768174551 -1232.28233864063
 -565716.271934079 -565651.048215815 1997.82916065259
 -649636.690013648 -466788.378509504 8987.80710623936
 -730548.887195687 -325395.951611905 20391.1277698145
 -788171.830703051 -133235.789912088 32146.3772873908
 -794123.580032883 90564.1672320769 34144.8568501601
 -744360.754180355 292140.892506653 24099.0987688416
 -665423.838594948 443911.940595736 12381.6003042111
 -580322.846286832 550641.120186894 4444.19136324932
 -499908.083286400 624573.174951344 507.342207461113
 -426898.066224016 676577.463115016 -988.665284686616
 -361978.214101685 713421.457641314 -1263.44477434035
 -304702.316300498 739699.395283748 -1141.51564533147
 -256294.930816058 757833.784642900 -929.134979390994
 -220743.559201094 768941.874273449 -821.620392956178
 -275475.586604539 -751073.283705100 -1457.28834601309
 -316844.776675242 -734579.464324534 -1548.57557052790
 -371448.241913858 -708535.767590205 -1808.21029258374
 -432617.973253883 -672931.819881285 -2110.68921530819
 -498040.488260689 -626059.185457640 -2359.73667363608
 -565866.104401910 -565500.491229419 -2178.60237141362
 -634665.220683231 -487030.460080195 -1178.39262561776
 -700772.303176204 -385897.199621682 1237.10357746564
 -757571.044744429 -257024.382601045 4957.71251543607
 -793524.861380325 -101214.968149293 8592.12394425934
 -796947.122470606 69206.8660774320 9257.08774733706
 -766309.062273615 229627.019778686 6469.37901905471
 -712043.324704438 364673.053562574 2804.95083695310
 -646345.245102605 471421.017602187 219.763902701946
 -576825.215049521 554320.782238645 -1068.48556869601
 -507831.791334405 618146.358056706 -1397.04377821753
 -441124.704165004 667388.398772057 -1311.70111163984
 -378739.495118417 704666.779444374 -1060.55878617305
 -323060.343348079 731868.342321783 -862.590857281329
 -280906.657811233 749059.996286826 -756.015940566515
 -335408.347210790 -726291.502128786 -1376.42901622907
 -381885.582704161 -702966.087770210 -1442.62529797172
 -440691.076495628 -667674.126979267 -1623.34826798425
 -503360.902183927 -621791.082274882 -1911.06148879545
 -565953.531059395 -565413.039177575 -2166.98162896003
 -626592.175322412 -497369.899411839 -2330.01797952321
 -683168.516700023 -416264.602508486 -2135.06167187163
 -733345.558866092 -319690.543796595 -1499.16590743240
 -772786.022237553 -206885.538082277 -371.438642387321
 -796046.087164726 -79436.5627862146 677.939850297449
 -798127.242358304 54698.7460793160 975.798585154899
 -778422.412222791 184549.371552174 278.583826323038
 -741224.459735932 300974.882829476 -648.224466218467
 -692058.093650231 401315.163997521 -1316.87465327455
 -635644.079486063 485751.293214689 -1511.73892331176
 -574664.455596711 556559.706966476 -1433.89508867118
 -511475.294975177 615135.448165642 -1184.49994179433
 -448073.138344687 662743.960251947 -951.758114577802
 -388520.057276134 699322.233895519 -760.442984243733
 -341417.954299689 723486.912645209 -683.895399736445
 -396389.430404089 -694891.121248164 -1322.52576289685
 -445973.097861993 -664158.269166695 -1337.71479695699
 -505952.508217048 -619685.323816690 -1469.31109094157
 -566011.379938227 -565356.863508187 -1653.68213702713
 -622420.182080040 -502582.862404845 -1892.97554222043
 -673319.793670884 -432014.106620760 -2065.70367322337
 -717909.989172082 -352988.048519707 -2164.49744486709
 -754774.049946357 -265164.003961810 -2045.61250367589
 -782144.690140677 -168066.814349150 -1797.10858653704
 -797455.858466838 -63733.7355987878 -1471.30674624000
 -798774.672707607 44240.0309231914 -1357.16792242284
 -785834.405072883 149874.218856256 -1416.44836664508
 -760227.025228520 249103.224622995 -1566.39542273288
 -724466.927116831 339330.516253165 -1572.34005745189
 -680451.004667741 420694.970672422 -1473.73593074828
 -629763.376750983 493352.339768433 -1248.25807134367
 -573314.137113217 557951.474840959 -1025.62611420882
 -513046.532884725 613826.199808232 -807.170332897915
 -452726.912987728 659574.023657912 -670.501539900077
 -402785.140842808 691204.571332360 -609.003685293452
 -457863.822360422 -656017.541628471 -1305.85192205019
 -508389.212761785 -617688.237629202 -1284.30603129778
 -566055.544657203 -565313.492490128 -1332.50570396640
 -620364.235965822 -505119.877329202 -1457.48463955534
 -668150.696885370 -439968.298313778 -1594.59414033152
 -708945.689632553 -370665.511734367 -1757.14601631546
 -742650.976706935 -297432.500100256 -1853.28906185687
 -769261.974553397 -219618.673276298 -1911.24424593821
 -788096.846473185 -137476.960735698 -1856.29897829461
 -798337.865602031 -51511.6905336228 -1788.31886444306
 -799190.681460006 35936.1088438663 -1688.41601874047
 -790543.038307680 122633.637467451 -1641.81142730620
 -773015.381102678 206021.434246794 -1545.70682053076
 -747383.286433924 285335.189224193 -1432.81178838778
 -714375.335471522 360092.124583758 -1241.72569682982
 -674069.536142614 430847.016228392 -1053.11517487393
 -626633.870047546 497322.100956638 -849.004895012932
 -572555.986855960 558729.949128048 -697.038568707704
 -515002.278073044 612186.499177192 -586.348657932904
 -464461.596707443 651364.044797152 -553.470385897313
 -517161.563631569 -610362.257490342 -1353.41547364396
 -566098.297541419 -565270.800109667 -1280.64986848826
 -618407.892811362 -507513.594789134 -1276.40621301192
 -664702.728132249 -445161.257561290 -1318.32469304862
 -703410.942755508 -381065.693976818 -1408.00773168120
 -734867.017489887 -316177.536232801 -1494.05062652845
 -759882.587766373 -250151.813559045 -1588.38993978448
 -778864.912929305 -182665.781650149 -1630.83468372796
 -791947.538443129 -113209.389373225 -1652.42597691085
 -798881.940989548 -42249.8848680200 -1609.84142414756
 -799450.162577888 29614.2361423951 -1560.31147226670
 -793598.079998011 100994.781372221 -1463.40665802357
 -781466.953588024 171194.473577732 -1361.12684790930
 -763278.973111460 239590.790239730 -1209.31311767535
 -738925.099989347 306575.568873396 -1056.96531952285
 -708049.663161828 372377.353250064 -883.902086225554
 -669886.417628376 437323.267866400 -739.499610925114
 -624132.163250311 500458.455372486 -614.200841469649
 -572334.975657847 558956.510348157 -543.302993026122
 -523786.631203423 604687.762138963 -524.682706967197
 -566148.584618816 -565219.995258636 -1461.88027570235
 -611151.078202940 -516229.154444478 -1348.96735460854
 -656638.839466844 -456972.386089883 -1293.38894213539
 -695374.126552060 -395541.574944708 -1298.69635360203
 -726636.493103759 -334660.451031322 -1337.68657919014
 -751324.818830768 -274789.112148984 -1400.16187888081
 -770413.603775937 -215547.585798936 -1455.11965953041
 -784601.166625155 -156201.025630057 -1499.64081181384
 -794177.025688312 -96335.7712994345 -1506.99602230778
 -799198.389212706 -35773.1544676337 -1488.65686141691
 -799604.400553326 25114.9047142432 -1429.74716297928
 -795368.926775424 85944.4507370171 -1349.70649569449
 -786511.366422071 146281.728580345 -1235.46446080091
 -772964.132488173 206216.447114915 -1107.62182509315
 -754457.736610571 266068.785977152 -961.663714448510
 -730334.677239083 326512.759514038 -822.858804276225
 -699671.535372258 387890.785334514 -693.716370172095
 -661612.312645570 449743.028463920 -596.744403506265
 -616894.033945077 509353.963426258 -539.281867981682
 -572662.568545805 558620.886633713 -536.286385765292
# End: Data Text
# End: Segment
