# OOMMF OVF 2.0
#
# Segment count: 1
#
# Begin: Segment
# Begin: Header
#
# Title: Oxs_TimeDriver::Magnetization
# Desc: Oxs vector field output
# Desc:  MIF source file: C:/Users/Victor H. González/Documents/GitHub/Intro-to-magnetism-in-python/vortex_dynamics/drive-2/vortex_dynamics.mif
# Desc:  Iteration: 425, State id: 2711
# Desc:  Stage: 60, Stage iteration: 6
# Desc:  Stage simulation time: 1e-11 s
# Desc:  Total simulation time: 6.1e-10 s
# meshunit: m
# meshtype: rectangular
# xbase: -4.7499999999999995e-08
# ybase: -4.7499999999999995e-08
# zbase: 2.5000000000000001e-09
# xnodes: 20
# ynodes: 20
# znodes: 1
# xstepsize: 5.0000000000000001e-09
# ystepsize: 5.0000000000000001e-09
# zstepsize: 5.0000000000000001e-09
# xmin: -4.9999999999999998e-08
# ymin: -4.9999999999999998e-08
# zmin: 0
# xmax: 4.9999999999999998e-08
# ymax: 4.9999999999999998e-08
# zmax: 5.0000000000000001e-09
# valuedim: 3
# valuelabels: Magnetization_x Magnetization_y Magnetization_z
# valueunits: A/m A/m A/m
#
# End: Header
#
# Begin: Data Text
 672845.117759082 -432747.971844701 2939.45098034198
 701442.758728410 -384671.922005789 2359.79826455868
 730878.066189988 -325290.949430899 1746.59117392941
 755652.830784624 -262654.475471539 1194.08624270937
 774682.332381641 -199666.774710768 680.420707822391
 788111.921454318 -137402.853773280 234.598682204348
 796352.570544489 -76305.6049248607 -195.049316753102
 799824.463558479 -16748.9137830252 -548.981310525579
 798953.431815725 40897.7606608067 -887.109241224961
 794179.138606860 96323.6146281548 -1121.18982904448
 785901.250619308 149524.093123108 -1330.35736529596
 774383.142123928 200820.101345913 -1426.91614629289
 759622.563528045 250940.757319598 -1515.68299671817
 741279.991602779 300834.944865809 -1519.86741857904
 718590.979998145 351602.920359642 -1545.91716369740
 690398.392096262 404162.991679554 -1528.51154043641
 655254.376646333 458954.547528098 -1557.30186659709
 611979.787189177 515245.774733378 -1591.12893640391
 561225.475564593 570107.962886441 -1695.94539083148
 510951.308619829 615569.146016010 -1840.29693397119
 631331.867914703 -491338.042772232 2645.80424145469
 668762.775710966 -439035.028324472 2143.29827497727
 707347.086084182 -373707.776067269 1611.80491116364
 740051.755210344 -303845.764075528 1072.96945363667
 765502.469425094 -232391.040825256 611.104113861422
 783719.034939977 -160575.401641650 121.080030536443
 795008.236706690 -89229.1044535745 -265.493752697506
 799770.096204189 -19164.8578811919 -708.124238045084
 798519.862024392 48631.5775505889 -999.808724821851
 791915.625688082 113436.553265232 -1337.97397502575
 780652.429707515 174870.343339322 -1465.26862447792
 765241.307099174 233244.612824842 -1640.88309693784
 745887.129653660 289222.731954398 -1612.80434576734
 722316.530336718 343883.761783087 -1669.84557301725
 693858.073700599 398194.037943116 -1575.34347086069
 659417.393064361 452952.735508588 -1587.80335334891
 617873.800773284 508163.047594524 -1511.08484881652
 568644.838970515 562708.334262152 -1541.96760987004
 513613.458667189 613350.451406308 -1561.67717749325
 462787.085459204 652552.923866307 -1671.85098267747
 577819.845045579 -553279.988708185 2341.10370844776
 623179.829597877 -501640.447144283 1939.52861387271
 672400.744017548 -433445.653211524 1450.91580907913
 715841.409607041 -357169.519662367 1005.24422884064
 750826.959442207 -276149.644251427 500.953670667203
 776569.891424879 -192195.718326558 97.9249217032674
 792839.830931660 -106793.397468075 -415.626613757798
 799700.496657376 -21874.1310782237 -798.771255735252
 797710.252546386 60469.8499135789 -1322.96402464608
 787949.186981875 138324.003166110 -1596.52206520100
 771711.619052138 210849.250514979 -1941.79741453178
 750132.193439116 278024.980070213 -1950.08286455733
 723795.614577869 340757.484226282 -2060.40326640785
 692787.851900184 400051.766254151 -1891.18387845118
 656607.953596059 457014.708465727 -1884.54779244238
 614615.324293062 512098.784944829 -1684.51837724693
 566235.672334008 565132.219545327 -1654.63235428778
 512003.025197074 614695.519470863 -1523.32908102402
 455025.419092608 657988.972057316 -1542.92921182433
 405825.625069271 689422.283593327 -1573.82403647735
 518936.931890034 -608851.498105094 2077.01125208768
 569996.000330100 -561339.084189442 1729.78872949603
 628769.484060915 -494618.099895237 1367.90708604579
 683785.627128559 -415254.526837530 945.554515448388
 730468.531398665 -326213.626573393 628.071741897636
 766381.098577988 -229477.594686177 212.789669364051
 789771.021890684 -127521.450607985 -112.323547140344
 799642.539011537 -23901.2338752090 -735.406298773615
 796308.047212676 76758.2755535293 -1288.82829866236
 781587.181829513 170638.146245175 -2024.90637089215
 758052.092949622 255639.622927352 -2325.41700766901
 727931.489143979 331826.419358817 -2640.93319428979
 692717.699637610 400169.958241550 -2488.59995441290
 652935.169159806 462244.000501061 -2479.69252733975
 608685.725993166 519131.060561640 -2151.49536838035
 559745.633601811 571559.805268234 -2052.96503786359
 506440.881297540 619285.513236288 -1756.94229765341
 450005.987749167 661431.616059046 -1681.74534808855
 394161.057491621 696157.080620646 -1542.67910733064
 348273.035155656 720210.656599297 -1582.12018439097
 457176.733593479 -656495.223237127 1859.06633352507
 511250.632439715 -615321.207098098 1613.35840165870
 577269.230104434 -553857.781145752 1339.49204522595
 643311.149480409 -475551.537255897 1224.89499512188
 703231.023638220 -381398.418199664 1172.17214438935
 752174.895449343 -272453.793598046 1362.72146934451
 785537.253272033 -151425.147329125 1283.93075500027
 799623.915686992 -24512.6809474896 849.667092655231
 793810.972886599 99317.3794471175 -444.369876805576
 771386.641993544 212037.472579416 -1660.95636860023
 737399.303342788 310216.848101313 -2788.29404090792
 696265.324548766 393960.591164485 -3106.51578620731
 650635.399374359 465470.364239530 -3304.10285661684
 601913.163781679 526964.816288834 -2936.94739586202
 550500.574756107 580466.587710754 -2767.26302155983
 496848.416324088 627005.914665288 -2287.83106681392
 441517.762219849 667126.408726335 -2102.48050695642
 386190.960275186 700609.334975650 -1761.23442730715
 334043.536481863 726919.583683035 -1683.62489112296
 292831.886298454 744477.567349870 -1624.21664468679
 392847.702179812 -696898.565898214 1752.63831241927
 447095.502026283 -663402.643963146 1595.00801708835
 517201.114150788 -610327.962891062 1668.90216294926
 592552.012457963 -537473.477210308 2091.36976128040
 666511.341168410 -442438.706525848 3259.30385543537
 731910.164425113 -322928.743225588 4953.58556454170
 779447.836928637 -180046.133577450 6667.78007149496
 799651.409514287 -22705.2765842263 6487.96401406203
 789161.878833383 131177.666743362 3993.58785208881
 754484.056348015 265995.552423891 418.099693341626
 705921.673138004 376391.112193513 -2078.95545203728
 651258.937345418 464595.387872712 -3594.73157853678
 594820.772258204 534952.217215032 -3791.33048859871
 538250.941862292 591837.629091479 -3760.90092011043
 482274.668985491 638279.854022720 -3157.78461420992
 427041.487573166 676481.716849896 -2838.07313420154
 373257.097012903 707583.211145154 -2266.89986805427
 321951.265486950 732354.556806280 -2045.91701390230
 275636.488142275 751013.612533600 -1755.04809749502
 240034.478596156 763138.526726046 -1743.01792065634
 324963.675953681 -731023.549492680 1783.08659230193
 376253.628621290 -705995.549592974 1868.39616454834
 446369.821596987 -663888.250657973 2524.48128708687
 527669.598719852 -601285.758323605 4497.93553072338
 615241.767803262 -511277.978849358 8508.55416817243
 701019.241114427 -385152.748049697 15145.4368414969
 769641.571906614 -217154.405289176 22266.9049627417
 799436.535294863 -17405.2985769620 24459.7959352100
 779733.508138629 178062.893700652 17585.8514942489
 725218.034694608 337629.345633756 8076.33088790828
 656863.870380293 456650.066912177 756.424566910406
 587353.027754670 543146.644703419 -2853.61785110015
 521480.319627577 606662.541565779 -4340.15000554526
 460430.726541132 654206.357356029 -4193.81112605341
 403744.647054556 690633.884539054 -3885.55032001774
 351141.224654568 718811.657265782 -3105.11302697429
 302289.829070236 740684.501335435 -2707.16127459299
 257765.808291026 757332.270515182 -2149.44467103594
 218784.116290857 769499.592699899 -1971.62205269519
 189547.930646258 777218.241698055 -1840.31505603953
 252004.402568612 -759269.211467328 2011.36864317069
 296675.712565810 -742951.868920304 2458.05642649730
 361187.262254662 -713809.930879519 4375.40429650079
 442330.864355774 -666525.554703330 9332.27548316069
 539730.046808902 -590155.100761413 20209.7406451960
 648933.251411621 -466185.007770192 39461.0408206491
 749803.378893969 -271481.389622810 63974.5893902857
 796468.553901088 -6727.01788089935 74783.6203800028
 757865.491161456 250241.364715756 54946.8533384926
 671306.697765440 434267.551639254 27550.1565968039
 578856.494780231 552128.338764137 8913.80863037087
 496482.218284517 627299.822358517 -582.920456665566
 426437.721955692 676857.033634773 -3927.50714521309
 366633.157347893 711025.439973344 -4790.78739129319
 314915.231045277 735398.383704778 -4196.96319974549
 269316.741106787 753296.054586275 -3680.63912551040
 228984.856873077 766523.186895448 -2852.94137037798
 193348.930367430 776279.633001928 -2474.37106394019
 163070.524026312 783200.996001916 -2050.37932850866
 140681.491489851 787530.789026733 -1993.56141650422
 172784.071906445 -781114.613281223 2371.79551225298
 206476.157028848 -772888.059074703 3412.43583629968
 257750.745362530 -757306.487036580 7172.02603002312
 327830.226515174 -729537.472884360 17390.1765520579
 423077.329517421 -677714.552379106 41334.7159418709
 550027.417763474 -573920.817181591 89915.1561977178
 695323.097994256 -360136.958481697 163789.989105632
 772743.898598057 12602.6014269688 206659.240337202
 696751.349361061 365682.954225216 144268.964620458
 565579.214108297 561532.099822175 69295.4070479439
 453400.508680047 658651.874446428 24610.7093941024
 369168.126881705 709714.285068469 4530.74656148406
 305676.579209344 739291.967158478 -3035.82242930443
 256167.905097974 757862.518780226 -4733.60600471433
 215845.830725662 770316.799076826 -4754.62074006716
 182142.504356732 778979.668754664 -3844.96729913676
 153233.576511488 785180.732660149 -3269.26425522950
 128535.435461167 789602.550462486 -2540.49875930461
 107842.004804405 792694.735457253 -2271.20631433703
 92796.4036593094 794597.048929397 -2087.41481098424
 87366.2985245040 -795210.484780327 2723.00891718481
 105560.538226876 -792993.141846996 4341.63021036253
 134430.464225208 -788558.092520432 10226.6812179303
 176955.400103172 -779723.727570962 26789.8308537217
 242388.854889345 -759218.441267227 69534.1748005555
 348832.772358219 -699662.181366203 169671.827050830
 510803.110829672 -499585.068069615 359854.056151390
 620834.987002577 45675.3766820089 502471.570219119
 502210.944562964 536345.757648417 316413.330019015
 353834.039461543 704673.920987802 135041.244062706
 258072.126360998 755808.542329937 46392.0783820812
 198597.132898641 774882.919591728 10753.5914669762
 158982.379464056 784042.508191884 -1395.83957760702
 130256.967541875 789309.674346190 -4833.25876675448
 108198.392902457 792634.840422166 -4808.06845352666
 90279.2983095912 794878.205401106 -4276.31559229460
 75490.3664430061 796423.399862409 -3312.51051356992
 62975.7057897648 797512.457429388 -2817.92924309241
 52746.6334177701 798255.883470184 -2310.23122826190
 45304.8626906955 798713.051686721 -2220.46883829042
 -2202.28087929528 -799992.084401536 2795.50600324705
 -2704.51973843488 -799981.630399175 4698.57391802956
 -3466.97713494661 -799909.110178837 11549.6979374970
 -4558.61276654278 -799365.832359161 31519.5987663289
 -6271.82289487149 -795376.093585364 85659.4069000051
 -9456.27530931274 -767796.670248790 224496.886419715
 -15460.9875627060 -599784.225098476 529169.010039898
 -20429.6075408817 75392.8563063147 796177.460340156
 -14865.3361749272 654296.343581424 460081.858538659
 -9775.00155498665 779611.179672671 179195.027481192
 -7464.92538996062 797815.616272928 58604.7550969184
 -6403.00376737572 799850.599476448 14071.9600597165
 -5882.97033453774 799977.873919526 -889.887205395972
 -5383.35325616737 799968.239128226 -4672.88923501750
 -4963.37871245147 799968.097368690 -5138.87770580076
 -4359.94795121743 799976.799599099 -4255.69701056169
 -3811.98099331726 799982.831477933 -3596.96280980731
 -3147.66926818874 799988.910619898 -2799.11831963789
 -2612.61544408395 799991.896109044 -2477.98313111424
 -2172.56451386210 799993.815149806 -2275.01329462136
 -92195.0307511980 -794665.941081000 2473.53808002007
 -111393.116007009 -792196.349474386 4064.18327653534
 -141702.722449133 -787288.688851120 9841.68977301253
 -185983.206452339 -777642.016252227 26136.9752817634
 -253569.761899576 -755690.498766301 68075.2959929867
 -362390.271178298 -693680.316823249 165773.669221970
 -525662.192132624 -491585.612158872 349317.685897398
 -634710.332095320 45052.3093217375 484884.608702140
 -516661.428824282 528223.330977165 306661.182050547
 -367815.798180002 698177.336541831 131377.111204971
 -271075.944980409 751329.851169314 44958.7232344813
 -210976.793394834 771613.284104563 10086.2501557111
 -170732.471561143 781567.091024203 -1818.07111762138
 -141481.264519740 787373.339212243 -5126.05966198012
 -118486.083931331 791160.804087879 -5062.60700010188
 -99632.3902751859 793759.011062810 -4474.27811414295
 -83517.4247081556 795620.892620538 -3497.85588854252
 -69809.3429995625 796942.808707284 -2969.05367313010
 -58310.7358357253 797868.296825189 -2457.43922953300
 -50002.7662066598 798432.309132293 -2360.31890988410
 -178885.978730557 -779741.131201504 1890.74752664740
 -213612.405906359 -770948.398518925 2882.16307685843
 -266088.844887476 -754423.215776846 6506.77518992430
 -337179.023748915 -725287.692986617 16372.7928552165
 -432776.160714247 -671670.946493413 39533.9645631304
 -558735.278049318 -566021.043503133 86226.8367434093
 -700865.515362613 -352538.507659261 156537.950647372
 -775359.620859240 13203.1102185717 196578.575184508
 -701523.372418892 359174.098884785 137327.799954442
 -573655.375823873 553713.058473622 65737.0417965363
 -463671.209047043 651526.963461063 22839.1283559989
 -380612.920745446 703648.851820180 3478.20266276359
 -317791.596579310 734162.515061305 -3728.62205550660
 -268240.265023244 753670.329831018 -5309.81663187745
 -227571.772398052 766931.565625007 -5202.12029698410
 -192869.271417690 776391.184135445 -4263.02000584278
 -162833.258757326 783244.739750372 -3606.59061202043
 -136640.142033411 788239.346536986 -2864.28979608177
 -114624.714880133 791741.529216531 -2554.53567546820
 -98477.5607102672 793912.164440656 -2375.96079683790
 -260232.778799110 -756490.036039936 1313.85341304055
 -305922.559093927 -739194.425833543 1728.77240825222
 -371309.695796063 -708602.081185997 3492.89947022665
 -452570.708152074 -659630.793471496 8183.54610761570
 -548908.990029791 -581684.861172554 18483.5858842686
 -655527.538095992 -457091.943404307 36750.5383998766
 -752739.921015978 -264216.227150314 59769.5291876344
 -796940.092339498 -5059.36235061235 69720.0980673277
 -759566.422004954 245909.013167599 50868.5345329316
 -676255.276902158 426680.564993093 24949.8681190956
 -586971.262947205 543518.667819482 7224.55575790932
 -507179.875310954 618680.574446909 -1709.05869053843
 -438815.038412699 668893.026217355 -4845.77554690928
 -380051.204515824 703939.443980330 -5508.28056059599
 -328415.382274211 729465.285630698 -4871.72920101439
 -282366.145805509 748499.454431903 -4233.96009507389
 -240797.255701945 762892.650052112 -3389.12125468248
 -203698.708555164 773626.687518601 -2929.93036705371
 -171718.164078322 781349.225681959 -2501.92960984807
 -148032.413429946 786180.954989925 -2431.16952033734
 -336088.745200162 -725977.654003736 895.118435290492
 -388268.940659559 -699461.454573593 950.413014359319
 -458688.255724028 -655440.909619012 1515.93490942315
 -539117.066983620 -591051.744062901 3259.43663553198
 -624409.880855726 -500063.724778027 6969.35082079686
 -706813.328407731 -374491.501582256 13077.9978533143
 -771858.436114442 -209397.510679995 19678.3413932658
 -799572.777110580 -14789.3191003084 21555.7450398507
 -780473.560489766 175023.289870374 15095.3429698799
 -728542.320110632 330437.132011374 6114.70325651515
 -663530.354099748 446908.291514382 -669.450491638277
 -597184.667971358 532310.153874435 -4046.28497690340
 -534064.715610796 595606.354569520 -5286.76989913500
 -474878.065301094 643789.441895104 -5096.82256708197
 -419304.038174146 681294.750393203 -4646.14437109957
 -366681.114174384 711006.365951365 -3861.09886760497
 -317054.793365260 734482.797800975 -3358.23444151116
 -270890.761075021 752735.259048529 -2797.38258710273
 -230042.834343633 766207.350693308 -2567.12108986335
 -199131.464008549 774816.511823507 -2456.22626512583
 -407421.473311712 -688481.867063503 679.565497686276
 -462164.911788873 -652995.638465379 538.940048976710
 -531717.849586468 -597725.562556422 529.431535400782
 -605017.425581457 -523405.371876038 855.239202098159
 -675697.608886963 -428286.672313485 1807.66785716505
 -737241.711265840 -310585.893140128 3325.98138369130
 -781400.880624730 -171434.516263396 4782.29991035316
 -799752.224890265 -19371.8893313049 4594.41909357310
 -789528.590380547 128995.425851201 2187.48283956248
 -756911.397935104 259005.802845218 -1062.90565498577
 -711391.355510092 365938.175790835 -3404.52704357038
 -660191.125316448 451802.824239149 -4678.25426102834
 -607006.994046030 521074.876278538 -4845.87355491939
 -553309.658299292 577777.294014082 -4671.24763708937
 -499275.006940003 625066.183991698 -4090.60815980319
 -445057.406893092 664763.454089699 -3668.06165833031
 -390958.800816229 697955.224548754 -3117.78598311431
 -338335.608919466 724928.289898481 -2826.70160411052
 -289875.939863182 745630.873771722 -2557.25768299282
 -252302.375946287 759168.628222071 -2550.49314380010
 -475229.052055041 -643550.279816803 620.830558799906
 -529079.937486776 -600061.873752263 409.167340605485
 -593350.839416545 -536595.528283288 142.793771212396
 -656173.161347451 -457642.632883124 -53.8060748325250
 -712048.996055866 -364672.739079665 -143.485079255880
 -757021.793347689 -258685.131829269 -83.4692972024669
 -787267.867164285 -142159.337927017 -167.244579236606
 -799734.385457647 -20602.6392659254 -666.312206932186
 -794016.037018459 97648.6607844371 -1808.86829470129
 -773177.483534419 205396.403520826 -2982.67934781130
 -741867.732444052 299360.888307582 -3914.85759839733
 -703982.723728758 379987.402558499 -4230.67232073348
 -661905.907061558 449290.710743726 -4292.71899994639
 -616531.833182925 509777.112308645 -3974.22173023819
 -568061.561091989 563286.993728154 -3718.26658955600
 -516334.974745986 611054.263053166 -3298.70559692834
 -461733.534607166 653293.801402990 -3058.11504109152
 -405538.494672801 689587.469133863 -2766.18005058227
 -351325.904461867 718723.123612320 -2679.63411710873
 -307766.491246754 738425.751013194 -2682.74230282285
 -539483.782309507 -590725.655321246 669.903213455069
 -589286.837884485 -541055.307760077 420.286512226842
 -645035.693258243 -473211.313603888 84.2623257762262
 -695927.011644772 -394570.024892281 -299.866106596171
 -738331.428420817 -308003.674897347 -661.857843131055
 -770515.471018698 -215185.550302428 -1043.00617205986
 -791240.584638487 -118052.096196110 -1428.21729784272
 -799753.278288770 -19769.1008888270 -1968.88709993677
 -796413.107600588 75628.4742057049 -2548.71169262568
 -782892.272370618 164528.928935239 -3149.82631164740
 -761484.240594490 245213.501875356 -3477.04245830716
 -734218.278672860 317663.369799017 -3674.60890360329
 -702270.991814360 383148.278589465 -3584.78311835248
 -666024.012615321 443170.106603391 -3503.03196188441
 -625135.023742978 499194.905634993 -3263.16992147299
 -579083.681291564 551953.131806766 -3135.33897871529
 -527494.083831572 601449.407146353 -2932.94493488811
 -471173.729859971 646519.202780685 -2869.96962872545
 -413513.879097811 684834.491093111 -2826.94229164008
 -364951.823046381 711899.940042920 -2939.76563893971
 -597935.195494709 -531481.800939673 772.825094494477
 -640999.511927210 -478664.153772989 503.588986690575
 -686373.049646852 -410964.742374627 131.314267186098
 -725664.228333161 -336766.018274854 -276.862673298396
 -756904.857874726 -259026.106538275 -715.721497391979
 -779692.839397019 -179102.683358868 -1142.36888401942
 -793951.127947988 -98178.6918241630 -1597.15428574567
 -799799.066763869 -17814.2816196647 -2025.87611129572
 -797741.277424224 60022.8973993499 -2471.04863433526
 -788748.075987184 133673.718704001 -2794.55798984039
 -774007.586065519 202244.727686460 -3053.98691175940
 -754507.903863501 265909.823157495 -3128.73070976991
 -730782.163014480 325495.527974598 -3176.71031345044
 -702736.764129638 382297.574561748 -3099.16517953577
 -669767.689910898 437494.898824776 -3074.90710728544
 -630832.214802998 491977.404153613 -2991.75015932698
 -584919.048369316 545766.162297475 -3000.49092999367
 -531716.273726882 597719.623870060 -3009.23489192354
 -473590.672274052 644749.603155955 -3134.38434939818
 -421206.329601273 680128.076713811 -3320.71820480535
 -643635.180875292 -475113.632840322 888.723186826531
 -678496.065633249 -423842.826801060 589.143012840828
 -714392.171108120 -360060.808238916 200.573594742900
 -744806.005551473 -291999.936095621 -226.747901653479
 -768409.795492363 -222589.187865342 -663.051154746394
 -785240.504679465 -152957.918163609 -1106.83413110686
 -795601.476847670 -83761.1868410097 -1534.15018564784
 -799841.878087178 -15784.8991871036 -1951.15751013389
 -798430.611992486 50032.1338287609 -2311.58340687897
 -791995.915054387 112852.205635638 -2617.29255836582
 -781215.323282455 172321.480024034 -2815.34918170783
 -766620.372846465 228658.049157430 -2949.65968655142
 -748398.782876893 282648.694115553 -2996.24818029455
 -726294.892491439 335390.126385195 -3031.87469586523
 -699543.085020289 388111.134611533 -3036.34498121635
 -666937.469383188 441797.369467953 -3081.60087385344
 -627004.989413610 496844.888967203 -3146.35624295193
 -578655.497595269 552401.105674505 -3291.43621510761
 -522879.594897751 605462.304045140 -3511.07104957560
 -468489.115183883 648462.334029856 -3814.48538796127
# End: Data Text
# End: Segment
