# OOMMF OVF 2.0
#
# Segment count: 1
#
# Begin: Segment
# Begin: Header
#
# Title: Oxs_TimeDriver::Magnetization
# Desc: Oxs vector field output
# Desc:  MIF source file: C:/Users/Victor H. González/Documents/GitHub/Intro-to-magnetism-in-python/vortex_dynamics/drive-2/vortex_dynamics.mif
# Desc:  Iteration: 439, State id: 2799
# Desc:  Stage: 62, Stage iteration: 6
# Desc:  Stage simulation time: 1e-11 s
# Desc:  Total simulation time: 6.3e-10 s
# meshunit: m
# meshtype: rectangular
# xbase: -4.7499999999999995e-08
# ybase: -4.7499999999999995e-08
# zbase: 2.5000000000000001e-09
# xnodes: 20
# ynodes: 20
# znodes: 1
# xstepsize: 5.0000000000000001e-09
# ystepsize: 5.0000000000000001e-09
# zstepsize: 5.0000000000000001e-09
# xmin: -4.9999999999999998e-08
# ymin: -4.9999999999999998e-08
# zmin: 0
# xmax: 4.9999999999999998e-08
# ymax: 4.9999999999999998e-08
# zmax: 5.0000000000000001e-09
# valuedim: 3
# valuelabels: Magnetization_x Magnetization_y Magnetization_z
# valueunits: A/m A/m A/m
#
# End: Header
#
# Begin: Data Text
 668921.460260462 -438792.051759610 2369.66571558465
 698363.338525359 -390237.277260565 1874.79064841770
 728648.657291397 -330256.500100721 1333.55489847324
 754148.367065136 -266944.852304054 828.421001552228
 773762.099182009 -203204.562224487 346.064453797990
 787632.262134223 -140126.414833406 -86.6675427284257
 796173.064333213 -78154.9324101559 -508.104542629130
 799803.266275861 -17719.6098951004 -866.417698521244
 798959.003707610 40780.5973561417 -1205.51807066770
 794101.559119690 96956.7519289048 -1449.84794867119
 785657.605828032 150795.779563313 -1661.10519165424
 773925.611606822 202573.486069750 -1769.30510508992
 758920.503935073 253053.746575165 -1862.80734553277
 740326.894047078 303170.808438937 -1884.37286339580
 717376.111508211 354073.167672078 -1925.24596324935
 688922.641545233 406671.661880414 -1937.36670786317
 653504.296445493 461441.374535185 -1998.09768518264
 609952.730871676 517642.098951214 -2079.30170178808
 558917.899044822 572368.559806786 -2239.16770877029
 508402.926107746 617673.440944228 -2446.44174279132
 626831.407801188 -497069.265556218 2128.71636955360
 665040.648359524 -444654.989972625 1695.85435373529
 704524.445096387 -379003.720145381 1219.17086112782
 738079.929191138 -308605.729278967 722.482804444293
 764260.722054282 -236443.378388179 278.462659222588
 783065.093898577 -163734.605574943 -194.048525505402
 794762.603042803 -91389.6119109544 -586.207636464535
 799743.371018326 -20235.9349664146 -1023.44920689187
 798522.332812919 48582.9791046525 -1333.46928395148
 791786.940332001 114326.981144318 -1668.08336602634
 780290.002726657 176477.248378841 -1814.51080663492
 764576.301523645 235412.722139931 -1982.27220419414
 744913.046899064 291720.178913897 -1972.25099734075
 721020.553201510 346590.917994264 -2024.20969296039
 692274.521591861 400939.115395657 -1952.56254898367
 657546.898146679 455662.365138009 -1971.22665287128
 615760.117739533 510720.833687475 -1925.47110240031
 566302.979027389 565063.730653904 -1978.95027644966
 511107.883916120 615438.516257639 -2040.51595962041
 460186.382780231 654388.027263345 -2191.54694996309
 572686.673497811 -558593.255346631 1883.90001452317
 618670.742518126 -507192.441708764 1529.51808475877
 668767.660243359 -439031.482452859 1083.52566591106
 713158.441018712 -362497.730901623 658.099488368098
 749076.035443499 -280864.846018170 177.187580652519
 775619.899101201 -195994.184320343 -227.663888704456
 792489.981566253 -109357.662615124 -728.522117798355
 799665.950428608 -23088.5328687968 -1134.62552309105
 797696.744261712 60639.5291942501 -1658.82288557238
 787717.799617750 139630.927653131 -1967.79269653123
 771099.436359884 213073.565225871 -2305.43865783615
 749097.369545411 280798.257708722 -2338.67652588840
 722317.391329322 343877.429638566 -2428.90271013001
 690938.582859998 403235.271096839 -2278.34564463210
 654411.949886365 460152.063109990 -2253.58859279775
 612175.963605395 515010.962892490 -2073.08570854140
 563590.497197067 567768.974243004 -2035.52357158189
 509265.101200824 616964.624249388 -1925.90854530483
 452254.896526260 659895.207205614 -1955.52424708410
 403109.168676490 691012.975356319 -2016.43699541265
 513165.568796708 -613724.912273658 1682.57429027804
 564639.198380616 -566728.066411216 1369.08505960929
 624148.631414018 -500437.242531710 1025.76374818204
 680165.902298763 -421157.869572859 627.890881879209
 727970.154401046 -331751.944992804 318.268455689689
 764993.029485631 -234063.368598102 -65.7183901514728
 789257.204780335 -130663.345827770 -393.394744323217
 799602.524586445 -25194.9289051482 -1009.07504571159
 796259.137011121 77257.7303686530 -1621.67339196729
 781136.201195309 172686.305523221 -2382.23989208120
 757016.229521255 258686.905264278 -2741.03743374915
 726247.718895264 335492.149043645 -3044.45881958070
 690492.794860659 403994.054532421 -2916.18723182025
 650237.886633411 466028.374481257 -2871.40468628764
 605697.978051667 522612.124045915 -2554.83548206661
 556541.803650306 574678.479288462 -2422.03062866238
 503198.107181878 621922.107010832 -2134.88636273211
 446789.547756519 663607.523028481 -2038.47872939673
 391100.419229202 697880.224639716 -1911.57933744995
 345375.072330580 721603.922253351 -1959.28589711846
 450730.117165639 -660938.726437338 1536.67668664335
 504944.082448762 -620507.665381426 1307.97663234949
 571469.128658735 -559840.976712339 1056.30667953096
 638429.816676461 -482085.518039656 960.455567992195
 699663.588189350 -387904.528189007 969.728037995125
 750088.789540272 -278146.188299450 1227.08618086102
 784778.411312260 -155310.327768822 1243.87561551042
 799579.328115805 -25927.9521683228 799.591292553016
 793662.689385641 100494.819836603 -571.544538078422
 770527.527725850 215136.035861316 -1953.22568293483
 735575.568119607 314513.275510825 -3159.60645804346
 693580.546213186 398664.477438216 -3558.13764952661
 647240.973669685 470175.693268413 -3733.55898373531
 598108.787551153 531276.244183816 -3380.91999747520
 546437.372501472 584291.220702531 -3157.11001322427
 492790.302520469 630198.815999967 -2677.69565562889
 437548.091869131 669735.539375666 -2444.29925940133
 382490.171397334 702635.644320496 -2102.40689718809
 330626.348790701 728479.381929020 -2001.89651168025
 289711.446050895 745696.626101960 -1954.44295196632
 385630.055140214 -700918.812844907 1509.42791856215
 439693.865768858 -668331.822211781 1371.06685418213
 509914.643789098 -616429.149051019 1469.77878356808
 585964.436775372 -544648.300498851 1976.76458718135
 661297.112764378 -450194.649560220 3302.44709994739
 728680.330831559 -330146.810230297 5297.08919778967
 778244.939445902 -185151.763512377 7323.84428446533
 799602.039866534 -24156.5247796193 7282.86700749157
 788779.475276311 133442.063496270 4489.44013044418
 752765.491933695 270820.690366193 517.516571307070
 702750.661078693 382277.505152827 -2327.53251118162
 646914.843266910 470622.328130793 -3976.15715259254
 589813.654472022 540464.374335763 -4255.94551305117
 532901.188591990 596656.365140361 -4183.91380590479
 476977.931300230 642245.458281964 -3581.11278004587
 421927.309415515 679681.654356729 -3192.85143459439
 368561.168857967 710039.320178197 -2613.16109955700
 317676.758228639 734217.947696324 -2341.48712172388
 271863.603610153 752386.856140824 -2049.32638385338
 236641.975934319 764196.610334692 -2028.78753664606
 316859.609818252 -734572.885450905 1632.06193418975
 367539.368910476 -710571.451103544 1739.30373819702
 437212.033661695 -669954.865655775 2472.97504156478
 518654.307676539 -609078.163248273 4636.82894669915
 607422.212369925 -520533.504500326 9117.37968028759
 695659.215181075 -394693.005599510 16603.8448702727
 767511.803444147 -224291.741411801 24876.6217235101
 799298.258164865 -18949.8625570034 27626.0240296032
 778674.313933733 182397.520731824 19936.3299208611
 721731.861805881 344991.944916591 9147.54594875834
 651221.645622073 464660.553665081 968.576759682270
 580502.514095709 550460.846126752 -3112.55682388917
 514137.280649231 612895.205510802 -4724.79718998204
 453228.275249047 659213.648634147 -4636.37457824862
 396910.445521143 694581.826743084 -4264.29295982859
 344963.317732288 721795.150645857 -3474.17950850395
 296746.880635917 742921.436380935 -3004.69608130544
 252961.812808001 758949.522111643 -2438.06222219712
 214595.552127501 770677.502071259 -2221.89295381408
 185876.620367806 778103.776891423 -2096.27954845315
 242924.133571301 -762223.091173730 1955.66106366693
 286470.116350423 -746946.375833724 2446.23527905347
 349681.269985806 -719515.650495900 4498.67898110348
 429927.800338375 -674584.868141093 9866.21362383207
 527571.502126442 -600994.772008458 21762.2186955080
 639254.525995881 -479044.874541514 43239.5556092744
 745076.739204173 -282457.086804909 71264.6252397463
 795495.359389554 -8336.82736016294 84366.0506320606
 754612.526256007 258336.880557858 61822.2561959986
 663833.230110845 445393.031112793 30830.0249231316
 568906.596129145 562357.658874466 9957.32825504487
 485785.895291046 635619.230650792 -507.506821117982
 416137.042707714 683236.398961268 -4240.85143779013
 357130.582916061 715842.990262463 -5153.64319001628
 306515.927027255 738936.390367453 -4582.29956917011
 261936.391123467 755892.456055161 -3990.22356643158
 222691.857384395 768373.867615814 -3152.17699439610
 187950.819451012 777603.453447155 -2712.68404947313
 158518.918045253 784134.252730827 -2286.11373966852
 136713.307868292 788228.753695220 -2214.33958334093
 162774.982387609 -783261.455591493 2407.75692440943
 194742.291316585 -775927.315360681 3498.74976707565
 243614.472058394 -761968.785942477 7453.74087683123
 310969.501339907 -736861.121906908 18266.2601126653
 403937.398069736 -689130.623000496 43972.2967742289
 530926.175742555 -590486.976152163 97172.6654263487
 681615.815548854 -377852.323240167 180630.844031910
 765639.444697979 10793.8757014191 231688.871053216
 685216.309516420 380381.895519880 160587.118827757
 549084.704421336 576812.756570046 76111.9650817036
 436117.381293343 670136.395378355 26811.2163681875
 353318.572484552 717733.721345076 4928.64906699671
 291791.763141410 744880.786984368 -3190.63385168842
 244355.086331455 761751.194323267 -5070.47641003428
 205795.689303186 773060.490384125 -5060.87653306159
 173750.695437995 780892.723836022 -4153.27518604786
 146157.749279428 786527.569429763 -3506.40164285072
 122676.799155945 790533.181713315 -2773.36601894441
 102907.712008705 793349.816432127 -2464.05686682408
 88570.4655787120 795078.642714039 -2285.72246173967
 76703.5740863154 -796309.341759079 2827.35735386392
 92668.1234294191 -794602.127545829 4480.82578469954
 118003.762249739 -791179.496078050 10493.6685953503
 155507.095006463 -784257.429181058 27528.6791722759
 213909.436344068 -767507.218330491 71940.4118250312
 311396.883512923 -715097.931402857 177952.042533361
 466445.194127702 -523007.198689570 385865.716271942
 578799.802198245 42943.1798276438 550587.570039103
 461718.490979363 556134.977426014 342826.372922370
 319214.574745358 719319.298604366 143811.689112749
 230706.682100927 764456.367175484 48794.3594982512
 177043.756990385 780083.342465513 11202.0943828515
 141854.153880701 787321.414401607 -1545.78505757540
 116371.868900153 791474.396766479 -5085.99958938742
 96932.3027404289 794089.476924900 -5102.09002052925
 80980.9764470004 795877.982972678 -4507.51295420158
 67894.9873714848 797105.830670779 -3544.77086346248
 56669.7931414106 797984.685386840 -2996.06965440230
 47548.2883292117 798581.838246372 -2491.56577440525
 40843.2780726923 798953.145118086 -2387.16195386628
 -12969.5727511390 -799889.427164971 2948.64245831040
 -15875.5077799333 -799827.908870823 4825.39574091266
 -20603.4204907702 -799650.647288066 11590.5718520817
 -27893.4732957980 -798902.182317038 31261.1138088573
 -39991.8661789688 -794519.942864796 84490.8931758021
 -62495.8533719670 -766422.365409978 220660.431683355
 -104149.113420991 -599787.060730332 519045.705072386
 -137955.388729292 66092.8354037122 785238.847630992
 -99367.1308505106 648700.516759234 457508.265349209
 -61303.5506787516 777370.870650454 178707.593958209
 -41546.1084151284 796784.701249145 58378.5982263011
 -30966.1257956668 799281.138362817 13811.6223032155
 -24691.4704405831 799618.058542782 -1136.54729547970
 -20193.4530159078 799729.845373202 -4939.52170227425
 -16946.2014579226 799802.605241754 -5349.66397556055
 -14059.5025341217 799863.928321676 -4475.10427925735
 -11805.5539079238 799904.047996133 -3760.70423291194
 -9672.40138076533 799936.011239930 -2970.28164996789
 -8045.22418821004 799955.263759027 -2617.31770863717
 -6793.71804831483 799967.485561562 -2422.27979232691
 -102411.879256658 -793413.284988796 2676.97411382489
 -123686.391331144 -790369.569579220 4197.62821562116
 -157222.590095277 -784338.378104110 9714.20592463760
 -205920.915331644 -772634.330524164 25154.8787406379
 -279250.271854827 -746907.219966585 64411.8811306762
 -394288.507340489 -678785.391973875 154230.232516458
 -560249.451125274 -473970.892928309 318546.927736827
 -668410.189559277 35192.4441174634 438165.848019185
 -554358.144719659 502725.703176567 282761.232754072
 -401948.680186914 680612.223753412 123305.552889699
 -298722.637804375 740922.346411487 42412.9962546111
 -233027.531178593 765253.384562038 9242.67976046721
 -188412.802324528 777493.281979024 -2193.71778162001
 -155901.511487950 784644.061747333 -5330.57974522930
 -130261.350536688 789306.268165817 -5253.15053166011
 -109390.609286907 792472.345639602 -4612.59106209960
 -91529.9851209310 794738.274454884 -3651.97757895200
 -76477.9720034640 796330.078187529 -3086.48215301377
 -63826.7703123684 797445.580869889 -2586.29901151934
 -54741.3738746992 798121.066216937 -2479.04155883371
 -188065.799339367 -777577.364931815 2167.17893590308
 -224274.500611027 -767913.692098437 3083.80664451630
 -278731.659637881 -749844.602711811 6460.16249641174
 -351859.276955381 -718298.610346158 15561.3494021265
 -448699.777343098 -661306.037170451 36644.7133181212
 -573373.006188239 -552357.574012914 78386.9007247376
 -709962.310346071 -341184.006342987 139810.556482034
 -780767.682455620 7238.17085625708 174210.892069171
 -713448.208931785 340303.104276389 123229.259479562
 -590942.162908156 535938.309103289 59644.6890589427
 -481872.369871926 638258.874489522 20606.5108493058
 -397457.295899272 694276.925961957 2692.21344885125
 -332677.648352598 727536.624634871 -4005.25922813062
 -281049.587748563 748986.784220977 -5470.49254474011
 -238562.764737534 763583.476054908 -5299.28077071485
 -202150.514984494 774025.815170030 -4382.54970005522
 -170710.323568304 781565.303421223 -3696.20282137570
 -143221.507719834 787069.725578947 -2974.35766834552
 -120187.924110682 790915.837141315 -2646.02664724123
 -103261.550495079 793303.794808908 -2478.17092594001
 -268181.623540164 -753708.037979241 1676.38922854056
 -314740.162214988 -735482.476281009 2038.96356931203
 -381028.677380067 -703422.980727219 3641.04364579842
 -462690.511761250 -652575.976884358 7879.38573359445
 -558269.047298560 -572751.442667187 17072.0751818515
 -662225.448219416 -447615.627008195 33131.6493500227
 -755276.566742699 -258358.415802159 52992.7986952770
 -797595.542449136 -8876.40245175936 61339.7109936439
 -763703.673527145 233962.611680065 44924.3294550590
 -684879.270171066 412864.264487139 21988.2786830118
 -598135.624232447 531222.623225043 6024.91476833913
 -519113.159333357 608701.149257123 -2106.82225129584
 -450398.023055712 661148.068930934 -4985.15560477064
 -390831.894403905 698011.191316031 -5550.41568080232
 -338094.713701730 725029.387994946 -4934.68444982773
 -290965.650953689 745198.405530849 -4280.92973272254
 -248248.638126395 760500.214918873 -3469.40581921482
 -210145.280668037 771900.247371165 -2994.84912564771
 -177215.103738390 780120.583553074 -2584.98042584170
 -152841.838817238 785259.875209194 -2510.11820583000
 -342835.910642807 -722815.143522459 1344.12362700738
 -395392.993965718 -695458.498684592 1362.69226182027
 -465962.353704527 -650288.913354826 1847.72777642403
 -545964.249455466 -584732.126530259 3373.20617973133
 -629941.508177753 -493082.236193327 6603.37984101614
 -710113.650300649 -368236.361326211 11856.8905670499
 -772721.453158427 -206392.928807899 17421.6752014992
 -799587.380209891 -17473.8755077879 18833.0848195451
 -782224.301230898 167195.950350758 13063.5657513784
 -733068.231868225 320289.701359049 5047.23973339064
 -670338.463318972 436629.381787660 -1061.86387401863
 -605303.307107558 523059.032977825 -4141.79006662822
 -542738.639033411 587713.439649877 -5261.42139253121
 -483498.987542707 637340.468042405 -5084.96220883289
 -427584.112045008 676128.953447797 -4633.08064554478
 -374333.327048757 707007.349205897 -3894.66679681526
 -324023.100067700 731435.264117678 -3388.95671536922
 -277056.941462818 750487.366869934 -2857.15871105245
 -235475.184947188 764555.141819506 -2621.52464104936
 -203939.637815933 773564.644601715 -2522.84556181305
 -413114.718682733 -685080.123330338 1205.74681184125
 -467868.424644518 -648920.695719012 1033.38676797409
 -537123.209501860 -592872.414182790 978.935897374910
 -609646.663217585 -518005.282200841 1213.93562095447
 -679049.750407852 -422950.990569878 1973.84067034244
 -738986.231834517 -306413.405521263 3189.68272470285
 -781755.800731566 -169821.522028686 4303.33340668509
 -799703.670693653 -21407.0721788255 3971.94408672296
 -790393.333980314 123593.668050436 1727.08347268116
 -759437.949321889 251500.435475369 -1237.77439950588
 -715566.474501944 357705.311484972 -3395.68907548634
 -665659.396473308 443707.849034464 -4573.02875576730
 -613280.517990261 513677.349281496 -4752.58758302714
 -560032.802644922 571263.693987404 -4588.23425084040
 -506080.031159182 619569.602566246 -4063.20536339232
 -451750.224592833 660233.584984112 -3653.46949522277
 -397293.018954162 694369.046411099 -3143.95871945073
 -344219.421941626 722152.920887706 -2854.54226249841
 -295194.793472288 743541.016329663 -2605.94365000105
 -257133.588584793 757545.743510412 -2600.79041106486
 -480041.057884752 -639968.046921392 1217.23642258868
 -533644.382912196 -596005.659979993 962.215191825134
 -597359.583276991 -532128.833064602 658.246491793345
 -659327.468088761 -453086.219056205 409.786550573961
 -714125.538421113 -360589.318150297 242.921099802933
 -758000.051773459 -255804.392226998 185.550024312323
 -787427.125494832 -141274.632708754 -13.7095893528425
 -799692.263162178 -22179.8148864846 -583.138194438223
 -794490.368764813 93713.2124412256 -1699.33925314106
 -774647.555119493 199782.743392058 -2832.09995147646
 -744481.490722982 292802.706934511 -3726.22902001378
 -707620.520732014 373171.121257135 -4063.60660581435
 -666386.547363454 442619.241166940 -4144.49536339520
 -621600.315177007 503585.115402903 -3883.26106389796
 -573542.617080582 557705.593242964 -3652.07583043867
 -521994.952109761 606226.446442978 -3281.09814656229
 -467427.334277005 649232.136324519 -3052.92223855213
 -411057.709864076 686311.715440333 -2790.77241080051
 -356556.947311201 716142.306102403 -2709.37897869671
 -312644.509513738 736373.536153932 -2725.05469105126
 -543570.472221170 -586966.236055764 1333.96393687375
 -592937.868169022 -537050.873363443 1021.71950071900
 -648011.281187874 -469127.895067280 630.494244403346
 -698087.427213045 -390735.081545103 200.042529541657
 -739648.958349991 -304826.790987551 -214.261533266281
 -771084.368555026 -213139.566883194 -649.306507351525
 -791317.165162300 -117541.249719667 -1094.86704259149
 -799721.563215933 -21038.5641347595 -1673.36386121008
 -796688.376958064 72680.2811657279 -2281.83031724981
 -783786.880262251 160217.853165275 -2892.37893061301
 -763138.343006298 240019.347864477 -3253.01157587365
 -736655.280037825 311972.614945027 -3476.48051281076
 -705411.801778209 377335.869526853 -3439.69190992022
 -669794.862373870 437450.977955292 -3388.83807915029
 -629411.508041723 493792.387971887 -3198.61308468696
 -583784.736573101 546978.811018706 -3092.19029763174
 -532475.026305318 597044.210093736 -2925.32984436498
 -476315.374763294 642740.538306499 -2874.74895849685
 -418634.320649549 681716.341044266 -2852.35473037218
 -369929.533364739 709325.951663301 -2972.31248366243
 -601423.896287804 -527529.163061998 1509.66655414199
 -643922.548679436 -474723.526483756 1150.95829985818
 -688586.613424283 -407244.378466091 701.441832635778
 -727165.783534964 -333511.423681870 231.364809810144
 -757761.637984398 -256509.715803531 -256.315418081378
 -780040.658243001 -177583.892532458 -729.795071796399
 -793988.096210193 -97884.6541372316 -1223.74872740842
 -799776.379759975 -18838.1739728950 -1692.80223131471
 -797912.066221845 57720.3377608169 -2167.29932435906
 -789312.581985870 130304.461624716 -2528.87316645529
 -775091.320868622 198054.272911073 -2819.44955640966
 -756155.321732138 261190.509852963 -2940.57458916394
 -733005.738473603 320458.190474882 -3022.50266023922
 -705509.522760027 377156.955244051 -2990.71997275497
 -673080.216531987 432381.842326569 -2994.08408961710
 -634647.263774706 487046.367211353 -2947.33260804906
 -589215.773377622 541124.679377886 -2975.52872482980
 -536418.716174238 593503.076379148 -3009.86153688509
 -478593.694999125 641044.585394615 -3148.75266261857
 -426325.944477115 676930.554707894 -3348.60695790010
 -646672.526657999 -470968.946821562 1701.29231779729
 -680890.315276444 -419984.190509778 1287.74399332108
 -716106.446376263 -356638.356980443 799.867895762141
 -745911.574778126 -289164.026077211 297.716026860094
 -769013.931614781 -220493.841980990 -196.547297209234
 -785474.109904927 -151756.224098371 -686.379245261688
 -795622.395382465 -83568.3518909989 -1155.21776741549
 -799824.984783208 -16655.5336801432 -1608.38874966345
 -798547.522267079 48143.8483557536 -2006.12726631474
 -792389.086082874 110063.748874511 -2346.79364991556
 -781981.944342200 168812.190143211 -2585.18506960720
 -767819.174063559 224602.128799031 -2756.75158447423
 -750056.969005574 278220.150555348 -2844.48081930260
 -728434.062171899 330719.406180673 -2914.00810728720
 -702179.458809586 383321.384950997 -2953.55127380924
 -670101.987266820 436983.036228165 -3025.34458733311
 -630724.103492612 492115.219891135 -3116.98972438480
 -582951.947043664 547865.178710757 -3282.28491047861
 -527728.796769197 601240.314780848 -3521.49723324716
 -473778.324771241 644607.916988306 -3838.27213147854
# End: Data Text
# End: Segment
