# OOMMF OVF 2.0
#
# Segment count: 1
#
# Begin: Segment
# Begin: Header
#
# Title: Oxs_TimeDriver::Magnetization
# Desc: Oxs vector field output
# Desc:  MIF source file: C:/Users/Victor H. González/Documents/GitHub/Intro-to-magnetism-in-python/vortex_dynamics/drive-2/vortex_dynamics.mif
# Desc:  Iteration: 2420, State id: 15251
# Desc:  Stage: 345, Stage iteration: 6
# Desc:  Stage simulation time: 1e-11 s
# Desc:  Total simulation time: 3.46e-09 s
# meshunit: m
# meshtype: rectangular
# xbase: -4.7499999999999995e-08
# ybase: -4.7499999999999995e-08
# zbase: 2.5000000000000001e-09
# xnodes: 20
# ynodes: 20
# znodes: 1
# xstepsize: 5.0000000000000001e-09
# ystepsize: 5.0000000000000001e-09
# zstepsize: 5.0000000000000001e-09
# xmin: -4.9999999999999998e-08
# ymin: -4.9999999999999998e-08
# zmin: 0
# xmax: 4.9999999999999998e-08
# ymax: 4.9999999999999998e-08
# zmax: 5.0000000000000001e-09
# valuedim: 3
# valuelabels: Magnetization_x Magnetization_y Magnetization_z
# valueunits: A/m A/m A/m
#
# End: Header
#
# Begin: Data Text
 562163.151972254 -569184.540144208 -1244.91985591678
 607734.169943026 -520247.863515078 -1157.23448701268
 653856.129517742 -460945.639377834 -1131.11919727802
 693173.730759472 -399385.603082763 -1148.49258316480
 724970.898660102 -338253.938290435 -1212.15798280581
 750113.815884377 -278078.472053408 -1275.38222528013
 769610.448421320 -218398.546546540 -1353.71603149567
 784126.301123207 -158568.611513219 -1392.59814954510
 793964.410044413 -98073.8997055431 -1423.29876457703
 799148.771288794 -36868.5488186451 -1396.94510220465
 799615.676553200 24757.1046424344 -1362.19678895666
 795336.030377468 86249.4921057199 -1274.32135541613
 786330.490754894 147251.356022505 -1182.14157386945
 772564.579897947 207708.640740160 -1044.24565304301
 753760.357610144 268038.225499450 -912.670002886083
 729299.642474105 328818.267585963 -760.518841694951
 698231.699492537 390476.746382654 -635.891640392477
 659737.436718110 452488.939387719 -523.759864397234
 614544.667478974 512186.137812472 -460.332380568941
 569892.878802478 561446.266845554 -442.871782713872
 513049.148720463 -613823.449210971 -1159.39465011157
 562346.094584705 -569004.066405722 -1114.59368592772
 615143.215410246 -511466.111692755 -1114.05773531490
 662020.668116580 -449140.528279368 -1191.99136198550
 701263.786412894 -385003.247094762 -1265.54033584374
 733285.560033199 -319828.614825522 -1394.48398543317
 758775.877390299 -253489.722331717 -1458.95948225563
 778220.167384064 -185394.098519071 -1548.97095521711
 791641.393031712 -115332.369307377 -1532.78464180206
 798816.125853165 -43478.9691388126 -1541.53156519327
 799466.787447359 29167.3974625146 -1455.57337966236
 793536.156647937 101480.877594607 -1414.06331145625
 781213.140686117 172349.626571334 -1278.68684717607
 762697.433515888 241435.796822849 -1175.12586253763
 737993.372680686 308811.924063676 -988.653364822395
 706673.644101137 374982.187792423 -848.275443611635
 668098.916737091 440049.298201279 -672.760943200351
 621883.452593982 503250.091562211 -562.789849448394
 569709.330318584 561632.494309208 -469.344188778473
 520873.817444700 607198.702821590 -448.990383310138
 453636.651307711 -658948.017823216 -1139.47232555189
 504265.427093527 -621059.679180673 -1119.79202660439
 562266.470294164 -569082.567993445 -1202.99165770750
 616982.109274184 -509245.896371538 -1301.48543169967
 665366.363457910 -444168.193725657 -1489.31570958799
 706719.913442032 -374892.506021185 -1604.01796837940
 741099.830855741 -301277.182622662 -1760.66366553629
 768276.690469274 -223042.261196354 -1754.02451424424
 787655.810912244 -139982.917164467 -1762.50909276892
 798232.230819202 -53128.6930348982 -1627.16250047962
 799206.654279709 35582.9387163278 -1605.68594173556
 790448.758350056 123241.540589389 -1510.99173053712
 772573.554777598 207672.444121428 -1502.80103080141
 746534.568154132 287548.831725692 -1344.59068586487
 712983.225933358 362840.773509168 -1221.72702770038
 672229.547966522 433712.421740588 -984.920626009705
 624286.800643556 500265.241545566 -823.798270423731
 569872.813171694 561466.450485665 -633.866553510351
 512021.410453405 614681.854307561 -541.500068018505
 461379.897571501 653550.571430540 -490.611583485514
 392035.426643655 -697357.055552833 -1166.75919145496
 441558.895665877 -667101.404709611 -1207.26666347920
 501553.405757011 -623251.524617620 -1310.81476823423
 561937.046921337 -569407.038082545 -1542.81541012106
 618729.327394454 -507120.353490554 -1722.35235166243
 670326.665397282 -436644.400934642 -1956.72936014218
 715601.905948155 -357645.133472967 -1967.41110897889
 753338.010848405 -269217.793931177 -1902.85096571934
 781427.882700137 -171371.201967104 -1541.19276260114
 797306.760203326 -65576.6928045489 -1275.73308109320
 798801.200174112 43765.9366027257 -1088.75786367726
 785618.703174607 151002.073271238 -1275.57439489272
 759537.921974667 251197.494070048 -1401.44758438237
 723079.945027485 342276.275697048 -1531.07609438180
 678492.611216263 423846.495831799 -1387.26206673957
 627176.468130484 496636.825766172 -1241.41704239846
 570379.825603735 560950.909265363 -965.369678229749
 509785.563568969 616537.145843170 -791.815778883067
 449419.305124417 661832.232118635 -620.250234084536
 399484.238725021 693117.606611760 -571.327469456582
 330946.809119673 -728335.542172879 -1244.00210811541
 377120.870950862 -705533.964328848 -1293.78193067101
 435800.366469146 -670876.853554871 -1512.59699724561
 498394.168471366 -625779.702608136 -1736.84697374906
 561342.353072553 -569991.726816880 -2047.92755749212
 622426.945469598 -502573.640452898 -2105.58194006996
 679919.231826414 -421551.968778952 -1943.14465983204
 731075.335291310 -324850.077469941 -1131.94367026437
 771690.430620596 -210935.721391120 27.0149266830002
 795789.876741598 -81956.5204161276 1265.24182417707
 798140.357627946 54495.8459825067 1473.87115642433
 778043.793992932 186137.861903560 742.290411771311
 739966.653602831 304054.550841206 -426.225973969323
 689969.898717286 404895.368622145 -1131.07576969109
 632696.883770751 489583.967048722 -1480.70105632401
 571270.920138854 560042.572876458 -1361.01786283157
 507683.171174962 618268.854043299 -1192.40333830461
 444289.522999334 665286.401544865 -907.564052763679
 384770.767973654 701392.106702955 -754.166928065796
 337886.544457505 725142.919781064 -654.954929568677
 270855.788983283 -752751.877096437 -1324.04759477994
 311832.123532379 -736721.556713579 -1440.34954395694
 365916.289189492 -711408.855646183 -1646.02976284122
 426886.902863989 -676582.288171905 -1994.86722879747
 492144.959242182 -630704.992759530 -2133.35433369156
 560396.592251289 -570921.867276687 -1969.98945253594
 629850.978245976 -493241.510863827 -746.433760030501
 697316.097945201 -392105.751996136 1827.23781231151
 755672.295847027 -262532.609320787 6000.86098006499
 793103.110291305 -104351.819197616 9907.28400754350
 796937.217431901 69114.0372695551 10692.1150480737
 765456.936872171 232421.821480646 7468.24570377636
 709915.468966908 368792.732455059 3456.50254239349
 642921.806756056 476079.117445372 473.634841797130
 572695.512621389 558586.641392938 -902.153357986363
 503177.627483894 621940.781007905 -1392.88152986012
 436521.118017346 670408.620055690 -1263.20224498683
 374207.892478502 707083.644609199 -1082.92796119616
 318928.677612714 733678.261666252 -840.805918023423
 277065.919839466 750489.109691861 -756.503423492072
 211366.168415835 -771571.330107099 -1423.16758366445
 245445.062982356 -761416.044158334 -1526.02616676516
 292012.395021917 -744798.906064444 -1830.48593865093
 346928.865609836 -720857.954393399 -2042.49710814782
 409578.524538401 -687198.162886962 -2029.07903526790
 480089.097190178 -639932.630640119 -828.855317263185
 558872.142994006 -572411.684858501 2605.92070869039
 643960.723499086 -474561.887329898 10276.2680200594
 727181.966149749 -332708.364432960 22617.0807782583
 787228.918681139 -137853.974875099 35593.6961168703
 793882.452752797 91256.6925291277 37720.9130303943
 742513.613344467 296585.464650388 26657.0095145285
 661420.158524452 449817.676415027 13690.5763967477
 575007.671213414 556183.725239060 5083.48550969028
 493850.959023996 629373.305521783 687.435570047764
 420936.111956156 680302.880761457 -883.220752377175
 356196.697731478 716325.509553463 -1294.94716579849
 299547.844666539 741801.745082285 -1122.38518660798
 251619.177313282 759399.015508919 -961.692400044835
 216605.340088606 770117.810452716 -827.447046090727
 151805.369890610 -785463.507727115 -1485.83356798919
 177570.049821260 -780042.418736449 -1643.89119649157
 213638.339789837 -770944.357075415 -1859.58743201315
 258067.042873849 -757229.975842636 -2040.84975154903
 311509.982784786 -736858.032027055 -1330.88791358687
 376573.318379268 -705825.901281356 1527.40472334976
 456779.396652675 -656699.496843178 9917.34034585095
 555823.096870352 -574658.786448131 28774.3660818641
 670108.932859372 -432418.248947321 62995.8417628284
 769347.077170966 -193195.671423061 103829.222244434
 781719.783753981 128848.539963922 110960.503949805
 694113.937414154 390866.077000165 73685.4920450564
 578589.141818905 551264.236853346 36638.0421933368
 474894.380769453 643635.451695663 14447.5753716131
 390324.857183355 698304.551422130 4154.43473067061
 321915.354195909 732373.193605850 100.102403119273
 266006.022095015 754479.819608241 -999.006057619150
 219784.484038234 769216.093912971 -1175.34731854446
 182416.910670928 778924.321564831 -985.888453256257
 155820.701575846 784677.707733543 -896.630606194405
 91755.8632325289 -794719.118604716 -1544.04876730554
 107863.159381646 -792693.376596881 -1658.17599921879
 130961.891187307 -789205.490364585 -1917.55965724703
 160183.532395070 -783797.239346822 -1767.35444636447
 197193.089880588 -775315.901174609 -372.409922514920
 245275.634685943 -761454.110504746 5244.10381607548
 311151.723548784 -736704.578020004 21236.0461713169
 405662.792740547 -686809.520937369 61076.8412389027
 541191.542809475 -571189.297096994 144410.875190692
 695378.188444730 -292019.852954390 266783.771087788
 718315.693698917 199274.643909690 290365.597963170
 574855.407564095 529079.640835271 172092.980821235
 430472.864807693 669863.157646431 77307.5849591161
 327567.764959671 729270.955127947 29380.8333118436
 256273.111188254 757787.172328401 9093.62064410941
 204826.800444831 773332.446532192 1705.56737438728
 165686.436919192 782654.186286475 -655.216971239154
 135046.183263994 788518.493912953 -1055.05595940659
 110998.694082014 792261.458395465 -1035.11022518727
 94304.3941307114 794421.705404505 -913.909097469224
 31118.8914757955 -799393.035465248 -1545.78231770276
 36725.6029857793 -799154.761356717 -1702.20040563263
 44783.5363947273 -798743.435640760 -1832.72714202088
 55305.7685580824 -798084.378354085 -1611.51834440858
 68896.9956220849 -797027.499139811 607.954923428107
 87626.4970106008 -795141.668798922 8445.32778032837
 115371.633536494 -790979.187356427 32269.3561151715
 161570.496679869 -777526.850551309 96679.7355932629
 245520.237529347 -717508.897254842 254756.345011612
 379787.584244541 -439127.412599329 550389.413377033
 404823.353574179 310686.738177475 616110.219945747
 270649.575205096 685056.226051569 312164.659417564
 175354.233990829 770645.815674187 123919.003406888
 122944.701122970 789274.248524325 43940.4265130159
 92162.5951286641 794556.660701580 13629.7099714272
 71857.2367503523 796760.800651718 2960.41744299591
 57351.9870207725 797941.538057301 -226.776361737382
 46271.2520355382 798660.082455459 -1021.72760649754
 37845.1926803183 799103.727111825 -987.272495529100
 32022.2358720981 799358.314736458 -927.939351806169
 -29757.2488219092 -799444.892301597 -1539.58287818388
 -35074.3915421769 -799229.051987959 -1646.06086594911
 -42672.9163173848 -798858.915887489 -1858.68771882754
 -52544.4745490911 -798271.140988518 -1504.54619410826
 -65213.6468477897 -797337.320542182 614.439113805132
 -82605.0159256239 -795676.561820123 8672.96454717852
 -108321.594230961 -791960.513843289 32633.9813129881
 -151291.745904336 -779432.071271586 97961.4918960653
 -230013.139629887 -721226.788586049 258700.357602107
 -357301.634769492 -443750.693273341 561623.418324483
 -381068.186207264 314358.732460496 629257.995409303
 -253564.869571929 689211.931796143 317319.665304247
 -164039.291695578 772876.037425164 125513.909802816
 -115245.277987302 790401.920807107 44534.5875254700
 -86720.8019687861 795166.527561342 13773.0153535300
 -67888.4569194989 797108.157762492 3121.25705046129
 -54389.3136666316 798148.948740561 -241.211962778643
 -44013.6741618944 798787.781917683 -935.919761126877
 -36082.7496444229 799185.233592936 -998.791821195469
 -30570.7217691958 799415.181081814 -893.994653759415
 -90444.2006161488 -794869.590223005 -1476.85937597298
 -106286.611237784 -792906.358335867 -1631.92589941631
 -128978.261374127 -789532.402907412 -1786.85538173238
 -157643.276897953 -784312.214077223 -1717.00266762598
 -193920.894940260 -776140.885522417 -111.022732392300
 -241051.409820430 -762799.710853828 5551.48132469322
 -305759.327335516 -738932.847222300 22124.2184783934
 -399054.531523019 -690493.000251650 63046.7879786043
 -534002.764359984 -576653.242197403 149372.306399537
 -689368.402860586 -296684.136048880 277037.413636452
 -712588.702375161 202767.762724780 301832.032174971
 -567679.036331088 534818.432417091 178072.333777969
 -423569.734235607 673951.128829534 79865.8637277205
 -321845.610252796 731774.157630118 30364.2122528757
 -251766.530505744 759289.837269298 9620.66196590182
 -201333.675465775 774248.830432017 1870.74800437587
 -162976.644311280 783223.088459614 -455.096495014790
 -132932.196378059 788877.681705543 -1017.09045486132
 -109320.175886179 792494.941952981 -930.657378130130
 -92908.6254120531 794586.207468050 -863.843495420260
 -150582.365920642 -785699.029775253 -1409.14299038614
 -176126.723363140 -780369.836984243 -1514.87377340141
 -211867.566323621 -771433.034253376 -1791.08981822371
 -255888.065525831 -757969.663170419 -1813.18360063939
 -308847.328978620 -737978.328569217 -1146.27438099703
 -373404.346951842 -707506.239177500 2028.59615927997
 -453190.874516669 -659169.285728170 10671.6450199137
 -552185.854309280 -578068.325762858 30459.6955082641
 -667228.702881295 -436385.863934530 66130.4454049656
 -767978.712274072 -195708.219177012 109119.157073457
 -780603.523757664 130653.025120684 116567.258370149
 -691482.553355310 394790.292990319 77411.2586504012
 -574991.689816504 554886.895576147 38536.8623505729
 -471207.534767322 646315.222854742 15494.8986678711
 -387014.881394904 700141.597464246 4607.06838478337
 -319111.923357689 733598.910304715 468.156694694890
 -263702.752018402 755288.092315165 -869.588891120383
 -217909.345330252 769749.662109368 -987.370373787933
 -180886.792667994 779281.168551948 -910.262927345130
 -154523.473619175 784934.315678323 -784.965774326508
 -210255.764533327 -771874.885330367 -1294.17029044619
 -244163.095157616 -761828.284270457 -1431.17035440057
 -290497.766116716 -745391.427853990 -1633.14512126235
 -345146.550109775 -721713.392078496 -1907.52244349115
 -407540.244768463 -688409.830978760 -1689.23232789500
 -477855.040728621 -641602.933046101 -486.165494013191
 -556622.309949513 -574595.910447953 3338.22751685373
 -642014.012217982 -477168.436032578 11326.5956929997
 -725963.467272899 -335227.988309821 24479.3798708311
 -786879.243784986 -139178.014764491 38085.9016774407
 -793641.716827169 92179.2429037438 40445.1788142538
 -741477.878633374 298984.329192400 28616.8900253431
 -659568.679466893 452485.476570581 15034.9778514613
 -572762.400947535 558488.740622207 5792.98360404130
 -491564.694820731 631159.743787294 1236.37702909207
 -418821.104196438 681607.276935135 -634.593371727194
 -354332.837398300 717249.759288284 -1011.50490315445
 -297955.813151145 742442.814103675 -1000.59744952725
 -250267.683802271 759845.684516806 -788.774639013453
 -215432.332852349 770446.891122560 -705.635442960882
 -269863.896102700 -753108.269007269 -1188.58451389450
 -310721.319018932 -737191.066740348 -1262.15108617000
 -364653.413116114 -712057.290985650 -1517.45080489305
 -425483.442508359 -677466.493958477 -1729.07918963477
 -490636.777368833 -631879.613368327 -1925.33182028019
 -558879.695895368 -572408.184792979 -1534.76314353732
 -628464.120744777 -495007.839043634 -297.021626258611
 -696259.564970579 -393974.161300491 2641.66889550721
 -755107.148231743 -264129.660198872 6979.77739998343
 -792986.859650348 -105092.534542377 11287.1433648689
 -796874.739174079 69619.8756083281 11988.4522156223
 -764993.342694234 233901.780622969 8668.48631002740
 -708940.111313918 370656.289105828 4223.02220038227
 -641568.623369160 477900.016457980 1129.50328167907
 -571170.410056552 560146.459944104 -553.252128619588
 -501634.675741122 623186.656445863 -1021.43131164583
 -435068.575915299 671352.488049978 -1082.14607929511
 -372891.334324266 707779.158236254 -846.139614123090
 -317764.434760196 734183.405514331 -700.763093285849
 -276022.992173300 750873.468576819 -584.789804137653
 -330068.957615023 -728734.072221517 -1065.45876296295
 -376168.354384101 -706042.532066574 -1145.45754147279
 -434771.817255953 -671544.347478058 -1286.96939593376
 -497310.211024838 -626641.918187847 -1568.55994048746
 -560258.716523425 -571057.948243000 -1729.25071027521
 -621410.833934832 -503830.496043178 -1845.73164395436
 -679071.349731607 -422918.375261450 -1466.23323871161
 -730483.681293224 -326179.605586825 -675.472815136080
 -771407.316469604 -211967.420906282 751.379732974886
 -795741.685080421 -82409.5643792096 1958.14304924900
 -798117.325350716 54802.7774941724 2321.75665028859
 -777817.549548724 187077.471698185 1370.83807693192
 -739430.903698065 305355.355004047 214.071520403049
 -689156.675056752 406278.871320978 -745.615769366962
 -631690.900366721 490882.356427059 -1057.61169645716
 -570175.606491852 561158.179552557 -1129.28424561079
 -506572.924534529 619179.344185615 -901.034077215115
 -443225.501886394 665995.954005368 -737.377809583319
 -383778.741495238 701935.600371847 -538.986964696543
 -336967.981164367 725570.364987764 -474.469739214769
 -391256.949221393 -697794.414370726 -977.220029254745
 -440749.350023708 -667636.891624806 -995.688327735771
 -500722.657169864 -623919.481075819 -1140.93419237630
 -561118.696193711 -570214.138520300 -1282.58076646677
 -617958.871262578 -508059.555660578 -1523.59110566381
 -669657.395113592 -437671.524965021 -1615.36512024959
 -715077.459206749 -358693.971073728 -1691.87758991593
 -753000.844708488 -270162.240513943 -1446.26027724282
 -781275.342828345 -172068.341244922 -1150.92557234292
 -797283.878813933 -65862.8142298662 -711.537160746243
 -798791.218315140 43956.4795785355 -646.100361031335
 -785498.454189348 151629.936972602 -735.309342991084
 -759236.515677118 252108.755030087 -1043.50354519216
 -722583.982415999 343323.698241483 -1107.51145650431
 -677837.763599433 424893.735347103 -1131.32723173769
 -626406.536829748 497608.283906808 -920.002328258070
 -569549.185959900 561794.569008637 -766.162394812904
 -508933.084152002 617241.301783364 -539.655732319119
 -448581.390645896 662400.598363688 -428.081326569871
 -398673.944953704 693584.143486134 -348.596698010878
 -452940.734993248 -659426.919626603 -910.085461412201
 -503575.070012658 -621619.901959731 -919.972455934562
 -561603.921001155 -569736.868817584 -967.587754996445
 -616367.802718772 -509989.701732421 -1111.70972395065
 -664827.628571079 -444974.994933054 -1215.80133389080
 -706276.396099968 -375728.255298771 -1389.41792945072
 -740775.399450782 -302075.767287217 -1427.72069187505
 -768076.711915827 -223731.870713402 -1488.16654091284
 -787571.210904654 -140462.551877991 -1363.55201607893
 -798219.602795955 -53326.7373701976 -1313.31402112719
 -799201.485101509 35715.4573407864 -1179.96545733427
 -790382.446284472 123669.462960336 -1205.21221172135
 -772396.783877321 208331.366986700 -1117.93802351637
 -746230.636447174 288337.741239185 -1088.21171195399
 -712553.924498250 363684.059008941 -899.947178401821
 -671696.057913073 434538.624415448 -767.903097394478
 -623668.880152395 501035.750013684 -552.392690072454
 -569198.039305615 562150.701460353 -425.321379838257
 -511311.742574584 615272.472909074 -293.233175361629
 -460659.672171624 654058.563390250 -249.179886642456
 -512415.659962864 -614352.809678237 -903.695345727028
 -561755.383618415 -569587.689701734 -867.592052648158
 -614612.679523351 -512103.937162391 -900.950555956227
 -661561.829828032 -449816.681236977 -947.942793284480
 -700882.103254640 -385698.270586131 -1058.96374750835
 -732989.691411997 -320507.170278111 -1125.20400939660
 -758567.470189675 -254113.899450495 -1232.58918517146
 -778098.538210802 -185906.224278068 -1241.21266757393
 -791590.644450519 -115683.285938927 -1276.31218117166
 -798809.222301590 -43616.2520214541 -1203.71322590685
 -799463.941225489 29257.4923177945 -1185.67427281456
 -793496.775038938 101792.446232175 -1079.76519352966
 -781106.241988281 172835.145587257 -1025.26912433590
 -762503.935974482 242047.490093854 -871.873092078138
 -737709.196345944 309490.816319711 -759.104986331972
 -706298.903661160 375688.070612192 -576.443172425391
 -667640.924645622 440744.136232155 -449.572364220345
 -621347.312239134 503912.121596224 -302.128445705575
 -569106.353208169 562243.640275267 -218.421872410705
 -520222.501104248 607756.959980392 -164.134800966879
 -561570.192752903 -569770.144873059 -949.011487069257
 -607216.137987683 -520852.918055739 -894.158903964137
 -653418.987806021 -461565.651251013 -880.885795245484
 -692813.775306652 -400010.285360432 -918.885851498247
 -724685.431455850 -338865.883924582 -968.580229789959
 -749899.812062119 -278656.028524798 -1043.85630547744
 -769465.571496033 -218909.895220696 -1091.81351316673
 -784043.392468745 -158980.050191648 -1141.21302223812
 -793931.090117152 -98346.9975596486 -1136.75696385728
 -799144.188325789 -36976.9551041534 -1127.41134539284
 -799613.910528165 24828.6065450665 -1065.07600008587
 -795310.215835153 86490.7477748434 -1005.55337572848
 -786258.069896697 147639.572056297 -896.819577204244
 -772430.755617888 208206.873008804 -791.079941657145
 -753556.123659858 268612.639581022 -646.801395506992
 -729021.048498583 329435.947299375 -517.177909566106
 -697874.726515917 391114.721378801 -375.248074780868
 -659298.475857404 453128.514236619 -263.282773155864
 -614019.378502601 512815.926253363 -169.127721878877
 -569287.265876177 562060.489447782 -122.934730222805
# End: Data Text
# End: Segment
