# OOMMF OVF 2.0
#
# Segment count: 1
#
# Begin: Segment
# Begin: Header
#
# Title: Oxs_TimeDriver::Magnetization
# Desc: Oxs vector field output
# Desc:  MIF source file: C:/Users/Victor H. González/Documents/GitHub/Intro-to-magnetism-in-python/vortex_dynamics/drive-2/vortex_dynamics.mif
# Desc:  Iteration: 1832, State id: 11555
# Desc:  Stage: 261, Stage iteration: 6
# Desc:  Stage simulation time: 1e-11 s
# Desc:  Total simulation time: 2.62e-09 s
# meshunit: m
# meshtype: rectangular
# xbase: -4.7499999999999995e-08
# ybase: -4.7499999999999995e-08
# zbase: 2.5000000000000001e-09
# xnodes: 20
# ynodes: 20
# znodes: 1
# xstepsize: 5.0000000000000001e-09
# ystepsize: 5.0000000000000001e-09
# zstepsize: 5.0000000000000001e-09
# xmin: -4.9999999999999998e-08
# ymin: -4.9999999999999998e-08
# zmin: 0
# xmax: 4.9999999999999998e-08
# ymax: 4.9999999999999998e-08
# zmax: 5.0000000000000001e-09
# valuedim: 3
# valuelabels: Magnetization_x Magnetization_y Magnetization_z
# valueunits: A/m A/m A/m
#
# End: Header
#
# Begin: Data Text
 581818.142655056 -549077.822926953 -1092.35855788184
 624582.946333635 -499895.099997589 -1015.94665026370
 667679.183919126 -440685.259376514 -1004.75337523296
 704189.617422596 -379626.027471756 -1030.52425075202
 733471.147737656 -319403.874027659 -1113.86378372887
 756379.451742174 -260554.616724613 -1190.24606576144
 773899.027271100 -202678.556939927 -1303.12915470713
 786716.419785084 -145173.664848442 -1371.81449579345
 795193.695467434 -87549.1882808791 -1458.19072976409
 799448.376162958 -29666.6288810819 -1478.16820480119
 799495.789358477 28358.6207700959 -1507.12510547006
 795336.016062493 86246.5720478567 -1466.41189152774
 786953.998301812 143879.635583677 -1433.53447797475
 774234.663279936 201392.352079269 -1344.13532991336
 756819.687375094 259272.707533922 -1274.33492206217
 734028.452123666 318120.788550269 -1181.25572628368
 704882.149138953 378338.312686536 -1130.03484691445
 668529.709332234 439393.696245076 -1098.83586079609
 625611.272170410 498607.308225082 -1135.04090629772
 583018.148010322 547803.199689054 -1222.08880584244
 533560.364256588 -596080.786558149 -1016.65657691936
 581110.476381627 -549826.924931158 -983.290529695057
 631467.773332485 -491169.511165553 -981.093218735828
 675671.171911121 -428330.839335768 -1076.81111140417
 712230.762071954 -364315.839718091 -1144.76587374289
 741635.200376076 -299959.192159714 -1308.66421581197
 764650.380021807 -235176.289636862 -1381.71094843584
 781838.027321337 -169490.208411559 -1538.92393819623
 793381.389236943 -102681.728088587 -1560.10550924240
 799238.950715808 -34847.4767183277 -1659.22423450053
 799302.650338291 33356.6681222844 -1614.26576628408
 793570.909021862 101205.272057310 -1644.76807546557
 782151.341754430 168038.448272280 -1535.73890598269
 765085.612274296 233755.813825495 -1491.77533363986
 742194.770814898 298571.809269941 -1340.47912878316
 712920.087414756 362964.671407169 -1263.43611717506
 676499.516832222 427021.201647386 -1138.88954307468
 632441.265303239 489915.130228189 -1100.50676207168
 582224.530100412 548646.908767888 -1079.83739322677
 534779.526126974 594987.020857733 -1141.68570482634
 475105.847767336 -643640.767282436 -998.052782982860
 525131.709579219 -603519.458351988 -975.184562268846
 581684.986385707 -549218.928600949 -1070.08405544570
 634273.864211928 -487540.095420072 -1149.14553332864
 680022.701585461 -421387.304132037 -1365.73963278943
 718421.852993088 -351948.683340138 -1471.54242936484
 749651.789044679 -279319.329810103 -1705.04444126934
 773716.216017147 -203372.015899466 -1743.62297923507
 790317.243631675 -124076.795775846 -1898.20136759598
 798880.068556200 -42275.6600337388 -1845.16458690541
 798968.871585684 40558.1940555168 -1942.96990536307
 790580.329692131 122389.963259712 -1854.50725766187
 774142.805585440 201740.853321204 -1882.72715387408
 750231.234280816 277759.206619316 -1708.28794175302
 719143.217534111 350471.671903805 -1624.76694876632
 680878.791588998 420002.500934562 -1403.69976050563
 635253.868021828 486262.120561609 -1293.54947146337
 582773.053173673 548064.111581847 -1139.33780579061
 526297.034997274 602503.288743001 -1103.63351972856
 476306.079577963 642752.901127306 -1107.54209978898
 414511.130518496 -684236.439065305 -1009.02502960700
 464497.202967571 -651338.030477423 -1057.58644854830
 524288.166544452 -604252.120211440 -1137.38359307203
 583498.488164658 -547291.138336496 -1387.15821001743
 638165.497567880 -482433.850697643 -1541.88682611074
 686714.093881276 -410390.455642559 -1851.26505724630
 728206.576293413 -331227.251328819 -1920.99458109388
 761683.504873638 -244609.666133217 -2085.57848248788
 785635.612586564 -150906.913713455 -1946.18324288548
 798328.418371386 -51650.3830009079 -1993.57881755021
 798452.873007880 49692.7182882975 -1908.75210108744
 785997.437120214 149008.784322750 -2100.24644094797
 762257.476870362 242815.283127143 -2068.14774978658
 728959.517250213 329565.715653525 -2112.17331602768
 687616.281246180 408876.907355782 -1877.33756855611
 639185.266778429 481081.289174882 -1728.56565481324
 584605.530969322 546108.320480619 -1440.64635270189
 525443.872593221 603247.098573937 -1294.14696468378
 465661.614637103 650505.922573003 -1142.51959000531
 415650.662598193 683544.612393035 -1135.58361145541
 354514.849391305 -717159.728267352 -1070.37963317415
 402158.573981962 -691568.692615590 -1106.69180891950
 461973.376576668 -653130.016747665 -1334.37533985079
 524786.355772573 -603818.650056875 -1522.70760056610
 586644.563141896 -543915.966240501 -1891.61431510711
 645170.159172051 -473023.726262646 -2005.02032686535
 698485.132911095 -390017.891815030 -2136.15690689169
 744089.458189272 -293815.907889956 -1757.97679065466
 778520.510310268 -184130.262476579 -1364.35572512313
 797467.170376064 -63603.9190596804 -808.487874798570
 797639.182546661 61407.1921365861 -944.044593764973
 779012.007675669 182039.913137277 -1327.37413524116
 744840.679030588 291904.892439435 -1973.98864577214
 699430.431626074 388319.949245153 -2165.25601406880
 646246.088244574 471551.662796964 -2241.14747523957
 587799.048760713 542667.936312693 -1946.58010944570
 525968.046306254 602789.042807647 -1727.46514405997
 463139.245301621 652303.657843037 -1406.20981390876
 403270.036479098 690920.897021225 -1261.64080996519
 355559.247964028 716642.327344973 -1181.45877437223
 295625.019755533 -743373.792483330 -1119.08153938753
 339001.554378994 -724621.557987896 -1242.50868036284
 395684.375609270 -695292.656549032 -1413.02784512400
 458582.904771234 -655513.920642040 -1794.23969351490
 524538.834061743 -604032.434791905 -1956.85474946896
 591547.914658967 -538578.484019109 -2069.10954409127
 657244.501014944 -456100.566171493 -1392.63191911433
 717968.117721985 -352876.428558327 -90.0148251631455
 767258.421376241 -226516.724931075 2165.21447866395
 796046.810714647 -79336.8420977935 3891.09714462489
 796284.497620931 76910.8925189326 3964.02075202862
 767916.261421360 224278.315653102 1962.79709832752
 718924.208050231 350924.445469737 -129.039159299474
 658378.365431487 454461.367844255 -1671.24770530051
 592766.387614916 537236.813145109 -2148.56129774879
 525768.767581078 602961.247493253 -2221.94906672709
 459774.317820993 654678.598243447 -1873.41245741951
 396796.926539080 694657.889534983 -1617.28041552388
 340015.893284144 724145.983927767 -1336.51616964705
 296545.960283950 743006.659667686 -1263.77558856891
 237369.270934705 -763972.773890082 -1195.81378981643
 274761.452949468 -751335.146936243 -1280.99624975930
 325394.877171050 -730832.143735498 -1597.37090650595
 384352.962191067 -701619.262872257 -1791.76492424547
 450213.940676540 -661289.349420437 -1950.37524494582
 522212.633855580 -606046.689983575 -1172.43403715950
 599238.791521900 -530011.298827971 945.436439008216
 677607.865884724 -425222.458644716 5782.79822339977
 748150.432452540 -283029.540171763 12853.3968754247
 793257.765992557 -101799.866993453 19465.4507426069
 793595.233439108 99158.9025052323 19342.1176887509
 749021.445207388 280717.196370890 12834.7294908481
 678781.928636985 423349.533285975 5501.45638926127
 600528.995474971 528549.187819010 825.620788650934
 523502.961671368 604931.732078013 -1499.54873248649
 451439.542671704 660452.929612083 -2065.69096905223
 385473.533787815 701003.497325046 -2061.91347776784
 326395.011465194 730385.806215845 -1694.27538072576
 275636.961086120 751014.051638710 -1469.66813173314
 238143.783963419 763731.489522348 -1322.90270281595
 178944.755535495 -779728.980167286 -1221.45553571173
 208825.609819889 -772262.871985132 -1386.08680340740
 250465.034598804 -759779.455655312 -1563.71593920644
 301189.696953877 -741135.294247477 -1800.57478008235
 361235.351422545 -713797.922591587 -1243.61833612482
 432211.140452054 -673195.982094241 836.517367220797
 515842.427253109 -611438.764216320 7016.25678263894
 611997.809906492 -514841.394905060 19925.3296552269
 711813.171063035 -362781.750508430 41369.2035121147
 785615.182374927 -137238.329354702 63043.0501954093
 786103.040567939 134379.867907467 63119.4162759211
 712964.751886628 360531.046388443 41214.4047305697
 613364.703085370 513216.610359329 19810.3977819120
 517199.891972825 610294.944783303 6659.73837658172
 433462.771442162 672390.950555836 659.836569525519
 362346.599083854 713233.775554031 -1588.56580176144
 302156.616065899 740741.285552693 -1930.60750793821
 251290.654016669 759506.229795257 -1814.96723627790
 209527.474864304 772072.523070009 -1502.13091919929
 179551.387131535 779589.230074805 -1389.86708514810
 119705.478533793 -790992.430904197 -1254.05791876481
 140605.302207729 -787545.768880327 -1345.70047445399
 170499.085246799 -781618.515927109 -1599.21540409993
 208257.066625254 -772416.350878383 -1405.38121781504
 255518.732456066 -758096.395776545 -179.093989882255
 315696.707672028 -735059.883909899 4749.29799114131
 394620.899224506 -695667.507150568 17918.2976355885
 499610.814941025 -622918.746327124 48592.8911283164
 632094.170029655 -478804.544189640 105845.021979649
 754484.318560522 -199926.732004133 175450.035270480
 755261.979834982 196808.816100386 175629.245061601
 633543.520126745 476848.311595565 106010.828851917
 501049.447831849 621778.659694216 48381.2895266745
 395864.811988084 694965.612427123 17715.7605942710
 316742.227700950 734612.459645890 4346.87520589257
 256390.562265291 757801.913884063 -372.686114586054
 208978.759625623 772220.744711044 -1731.89585662034
 171096.930636429 781487.583206372 -1731.36392977984
 141099.242196020 787457.020352032 -1563.63359145740
 120126.410736267 790928.367943998 -1400.79444089644
 59352.7080152585 -797794.319378599 -1216.56010646965
 70092.6928271515 -796922.297345264 -1366.16477224400
 85741.9350217113 -795390.677023805 -1411.19890373228
 106207.721661181 -792917.851710743 -1095.58110718892
 132970.266948319 -788870.773725645 1345.53676814244
 169512.749180644 -781779.387974658 9296.04234018903
 222510.211912546 -767748.232264998 32432.3518820989
 305157.469620694 -733876.804900715 91124.9360132280
 437359.171762795 -632234.202167224 221352.362727253
 604202.210535335 -311461.151035270 421819.440258504
 605275.660309502 308017.373021229 422808.080521173
 438830.386756186 630989.652248384 221990.879125426
 306270.285045377 733403.446972614 91202.5025254913
 223336.436817733 767522.427356130 32096.0978144300
 170145.942935705 781644.762736130 9045.60609911278
 133468.301859883 788787.242163611 948.155347582183
 106607.315999610 792863.959438421 -1273.57724130498
 86062.6996514995 795355.484479158 -1692.64220028822
 70354.7132681480 796898.961214550 -1503.30839455086
 59572.6415591656 797777.622506395 -1401.92928002254
 -1936.80074404438 -799996.777641721 -1185.14376383765
 -2136.45672525987 -799996.164995857 -1253.61261279894
 -2217.34865388326 -799995.740044137 -1378.14229340473
 -2047.68784155515 -799997.053193697 -722.395947796829
 -1347.31599365037 -799996.164724089 2078.74153309267
 103.342242496702 -799909.283161096 12046.9096901887
 2875.32157403963 -798937.737812855 41112.3293468437
 7880.63984102163 -790821.372085606 120579.654039712
 17181.8072735351 -733661.516546584 318505.203469870
 31631.2019498159 -413338.366511973 684215.508324989
 31745.9849638862 409876.646420575 686289.535952352
 17303.3733531475 733092.420933917 319806.340837467
 7965.91338787919 790799.059438594 120720.304070743
 2935.81249253122 798946.560696115 40936.2205981073
 147.156818357832 799915.429727947 11631.1490415315
 -1313.82152469809 799996.797049626 1843.52470579345
 -2024.20970769645 799996.725197965 -1068.75983801598
 -2198.64721500298 799995.512497629 -1531.64424047475
 -2123.32856474751 799995.809651615 -1481.89596908728
 -1925.64720821642 799996.556562264 -1342.15176127679
 -63708.0350728678 -797458.521811535 -1091.90535941486
 -74905.5806892664 -796484.558230797 -1225.75751878776
 -90883.2004449266 -794819.924744071 -1237.37897074563
 -111079.680806889 -792250.343551786 -835.256797324718
 -136732.170184092 -788226.624706572 1761.17586693118
 -170738.320775889 -781502.778941741 10091.2003728393
 -219449.050948764 -768554.764826149 34142.1660225566
 -295587.324359425 -737250.727562979 95338.8608380374
 -419914.561904089 -640062.556210262 232361.108704708
 -581494.584615910 -319589.570426947 446907.769608775
 -582518.862871035 316195.461799182 447986.835004154
 -421262.232679806 638917.965307801 233070.729446157
 -296573.774047825 736842.497610762 95431.2855501989
 -220168.021499717 768363.282397171 33821.7174718449
 -171285.860852694 781386.241075064 9833.41906626311
 -137167.199035609 788151.810563062 1372.22989825122
 -111429.682089523 792200.973646300 -1021.42218686474
 -91169.7595513679 794786.627518648 -1513.82326536363
 -75139.8676691948 796462.259201863 -1367.46251094790
 -63906.7953717950 797442.343509350 -1276.82560462708
 -125460.972223781 -790100.326918082 -1008.88681394587
 -147078.895714279 -786362.908284776 -1083.93236729116
 -177533.714712733 -780051.399849667 -1262.43133411165
 -215389.805584169 -770458.513106691 -954.584643299219
 -261831.794714028 -755939.038175323 530.885485207940
 -320183.317130764 -733108.127770351 5925.91159149412
 -396108.776485028 -694760.612480645 20137.7391246399
 -497580.760183181 -624183.217443371 52997.1523533978
 -627436.962040612 -482879.830479586 114673.135394712
 -749889.394599007 -203438.725289552 190469.370032291
 -750643.829741936 200420.750309489 190697.046950764
 -628816.279153379 481037.985381232 114858.798931839
 -498921.321470521 623127.269198200 52819.7062061440
 -397256.231873087 694111.318557426 19923.9476125376
 -321148.070852985 732689.016225975 5542.75105146919
 -262637.921427490 755659.460221466 320.009453167200
 -216064.842975793 770269.028030382 -1268.10369310653
 -178095.119821257 779923.167487732 -1407.51971776831
 -147547.999596246 786274.701939129 -1296.49746645646
 -125861.299479349 790036.447165411 -1159.93259451762
 -186998.750574457 -777837.198139081 -872.052026924037
 -217882.441095417 -769757.255076648 -1005.04684732747
 -260444.792517848 -756417.380861579 -1120.70551149199
 -311419.439708572 -736896.533266881 -1196.59134750163
 -370842.558982172 -708855.147906593 -419.206246852552
 -440057.743905395 -668090.345380615 2114.81396424627
 -521091.525313307 -606944.865109366 9030.66797216678
 -614273.908136573 -511980.948913337 23303.9424222750
 -711874.250132627 -362001.114090878 46800.0576396217
 -784911.834136032 -137530.952029599 70701.1305923868
 -785377.404234078 134814.199825867 70763.4400227495
 -712956.369749452 359880.137077900 46685.1343628321
 -615546.610888774 510456.108148280 23171.7819223136
 -522351.762808461 605865.383815121 8704.74499619202
 -441221.467894773 667322.978273274 1912.83487740651
 -371885.509453964 708308.278809196 -741.639076773095
 -312333.274590951 736509.405770220 -1349.36847865185
 -261235.368353468 756144.322052959 -1358.87758765890
 -218558.446703426 769565.409436621 -1134.00759737476
 -187587.103381707 777695.311129658 -1040.04413693725
 -248493.347782033 -760427.839467511 -746.371791546934
 -287205.530932896 -746667.470264342 -819.664932665345
 -338893.176579063 -724672.560877228 -1046.12608779762
 -398072.494619529 -693928.673999682 -1133.32626692038
 -462906.637196738 -652469.409933962 -1055.62286526241
 -532755.952495761 -596800.716305313 9.88934235756541
 -606704.014694593 -521443.365203552 2656.20757070732
 -681811.318697611 -418409.370447378 8180.73454238255
 -749637.838046027 -278891.159778663 16212.1179057793
 -793321.384078245 -100423.870001815 23584.4842647883
 -793632.863510843 97952.0984663199 23500.3055645155
 -750439.053765059 276730.862663162 16163.4227162776
 -682887.645147419 416655.048325819 7939.44643036419
 -607887.298789670 520064.192592748 2503.50814890247
 -533948.558048940 595733.880431829 -284.715809859717
 -464049.447005108 651656.860878834 -1202.66528894747
 -399133.622747595 693318.427940428 -1381.54644993496
 -339851.260448815 724223.557175694 -1166.19172332888
 -288056.079392570 746339.529896192 -1000.61946502336
 -249250.698226516 760179.788417360 -882.448487028204
 -310401.648716679 -737326.569914984 -588.023273721845
 -355244.395030535 -716799.095528809 -690.252469511685
 -412896.354030513 -685212.323797582 -819.844026222032
 -475437.118670943 -643395.994880892 -1067.68960794328
 -539629.787191444 -590591.627605788 -1105.52144381877
 -603612.459875575 -525024.837490926 -958.280013512049
 -665659.338057305 -443731.501155730 -23.2205357636047
 -722700.887854961 -343075.086991973 1706.27638483392
 -769080.017856807 -220220.645326180 4335.14768984141
 -796243.898296021 -77165.1546265227 6418.20362878225
 -796457.399056466 74926.9550054597 6446.92964283808
 -769669.958453085 218152.889546277 4179.93270714490
 -723557.559411624 341265.022851825 1625.54490498835
 -666680.223656971 442196.123656669 -260.014821938117
 -604717.744144767 523751.171483671 -1077.16570063442
 -540762.813880588 589553.885689214 -1339.77337535472
 -476551.998135431 642570.464588640 -1179.45388594091
 -413959.191172197 684570.501276894 -1008.37768849029
 -356228.888306642 716310.220800378 -804.184511783226
 -311306.882321535 736944.695425288 -735.461606436308
 -373033.826839786 -707704.428296926 -454.094910263081
 -422102.755478127 -679580.024831479 -503.654464440569
 -482311.638039897 -638259.374674758 -674.129852532236
 -543841.706861857 -586715.887576769 -815.562742579011
 -602832.103799221 -525920.497768653 -1041.46808821308
 -657561.877555075 -455643.794338490 -1053.50228730364
 -706753.961091115 -374830.512306351 -962.042710270084
 -748641.720586795 -282020.193110476 -429.970663893431
 -780239.061984894 -176711.517823363 213.591888850637
 -797671.675968790 -60985.0394447733 849.894735260032
 -797822.058022848 58986.2326862022 766.867443383992
 -780668.017182098 174806.770224688 200.081448416168
 -749298.725769143 280269.625753710 -597.026476354143
 -707583.608906609 373261.783966002 -1037.80403517644
 -658516.873123117 454261.997920403 -1251.02258843041
 -603871.710132251 524726.276841726 -1136.70302738252
 -544930.322938672 585704.659991234 -997.199332178682
 -483411.065336350 637426.968049785 -776.088418375566
 -423177.817611369 678910.970582144 -654.755595585912
 -374061.390463407 707161.748487916 -581.068065386450
 -435871.943376146 -670831.980638463 -320.515490613931
 -486954.771685547 -634724.273311831 -383.668403776198
 -546200.322069803 -584521.157847084 -473.497568576391
 -602900.828082085 -525842.331527868 -658.689056471500
 -653809.921960765 -461011.894400558 -786.871569081281
 -698088.290303158 -390732.378068142 -973.483861106558
 -735522.543029462 -314651.563364007 -991.144823182649
 -765569.553072260 -232168.609415460 -998.103617462914
 -787086.873038118 -143155.826099911 -814.705302548709
 -798498.058403858 -48992.7907020285 -746.447918739404
 -798603.954824893 47235.6832653082 -716.634146369017
 -787395.301245103 141448.929924801 -916.406166585591
 -766058.833589119 230548.901082640 -1033.29069783339
 -736167.959690801 313138.048751810 -1139.09990464287
 -698868.126731959 389335.647869046 -1046.29658893060
 -654706.913193331 459736.842697628 -945.136644204221
 -603896.580440205 524698.348470966 -750.496147807450
 -547272.347877778 583517.430291858 -621.123120353521
 -488069.376408141 633867.523531125 -496.412215403902
 -436991.643428491 670103.045933514 -459.787228311002
 -496250.743173696 -627483.184958546 -229.115327680807
 -546934.180222811 -583834.678294632 -266.316741731183
 -601825.741324885 -527072.707327328 -371.845926524076
 -651106.662024158 -464822.424192948 -478.158081682876
 -692868.717305006 -399915.647130809 -644.794588145720
 -727367.452612482 -333070.592825097 -754.370709579519
 -755180.806214366 -264009.745713143 -896.712830726020
 -776584.736814707 -192133.498467310 -930.222094180924
 -791361.327848434 -117244.516881201 -985.924568953770
 -799003.570633342 -39904.6316955325 -956.286784709667
 -799078.306084672 38377.7893251900 -1003.01114744145
 -791582.261993124 115743.380314469 -996.198387682399
 -776943.624070470 190676.560471200 -1026.79263599974
 -755669.371051260 262607.875598794 -951.487509948781
 -727980.972575666 331727.194661811 -878.572473802726
 -693606.495229599 398634.544235376 -727.954369901896
 -651970.910548170 463609.273118621 -611.291595410652
 -602814.800172824 525941.144719627 -478.522317275015
 -548035.181805765 582801.231451324 -405.119663901919
 -497425.681876086 626552.117177073 -368.063904937707
 -546036.564975569 -584674.300808155 -178.000496850306
 -593896.831677673 -535991.141647013 -222.259203991400
 -642616.102473529 -476491.819134714 -301.893063926962
 -684451.245056300 -414157.357507196 -419.956587987188
 -718565.988775707 -351656.980030780 -536.815073571102
 -745792.747033012 -289469.735265814 -671.444781075134
 -767087.551864974 -227103.707519389 -770.587275236976
 -783035.267924818 -163875.012301347 -865.753511495468
 -793804.556866824 -99365.4974057834 -907.426453495081
 -799288.325222218 -33723.4923605056 -948.275525673977
 -799343.722978651 32383.8033464064 -949.639642448669
 -793969.511053906 98038.2644493081 -956.148832996126
 -783307.412407201 162568.946033193 -914.031504743358
 -767465.873958439 225821.602452898 -858.006301634445
 -746280.241878888 288210.396479523 -753.619470222232
 -719171.343758765 350417.120552601 -648.027650923047
 -685188.348078140 412936.617155330 -527.134008137681
 -643501.619947288 475295.149050118 -431.757620588191
 -594942.295079913 534830.381418863 -358.659169587010
 -547228.811603763 583558.493809940 -334.743198152171
# End: Data Text
# End: Segment
