# OOMMF OVF 2.0
#
# Segment count: 1
#
# Begin: Segment
# Begin: Header
#
# Title: Oxs_TimeDriver::Magnetization
# Desc: Oxs vector field output
# Desc:  MIF source file: C:/Users/Victor H. González/Documents/GitHub/Intro-to-magnetism-in-python/vortex_dynamics/drive-2/vortex_dynamics.mif
# Desc:  Iteration: 985, State id: 6231
# Desc:  Stage: 140, Stage iteration: 6
# Desc:  Stage simulation time: 1e-11 s
# Desc:  Total simulation time: 1.41e-09 s
# meshunit: m
# meshtype: rectangular
# xbase: -4.7499999999999995e-08
# ybase: -4.7499999999999995e-08
# zbase: 2.5000000000000001e-09
# xnodes: 20
# ynodes: 20
# znodes: 1
# xstepsize: 5.0000000000000001e-09
# ystepsize: 5.0000000000000001e-09
# zstepsize: 5.0000000000000001e-09
# xmin: -4.9999999999999998e-08
# ymin: -4.9999999999999998e-08
# zmin: 0
# xmax: 4.9999999999999998e-08
# ymax: 4.9999999999999998e-08
# zmax: 5.0000000000000001e-09
# valuedim: 3
# valuelabels: Magnetization_x Magnetization_y Magnetization_z
# valueunits: A/m A/m A/m
#
# End: Header
#
# Begin: Data Text
 502690.251815555 -622335.655289092 -918.087964445605
 555529.272842310 -575661.755739338 -877.493246598278
 610014.778151791 -517572.418340585 -873.046104361643
 657553.183147757 -455656.675794573 -897.293760266438
 697076.478939977 -392534.772577959 -913.688028570956
 729388.315727520 -328621.162059890 -903.729261482390
 755451.939651611 -263233.153184296 -820.939262063723
 775758.883035658 -195442.371695583 -659.346095390886
 790228.893739517 -124652.030481362 -408.406773364307
 798364.148076489 -51133.8443482378 -130.492420777871
 799642.851839008 23901.7448155444 126.876120901475
 793897.491700170 98623.9080272436 312.149981870113
 781405.471805372 171479.652225557 466.374554862013
 762605.761400578 241727.273176832 614.883027859240
 737668.967680410 309586.575174153 804.110226643333
 706263.297826020 375754.055674123 1021.65961217318
 667576.594046457 440839.943855072 1278.66461112796
 620918.908347115 504437.600208174 1554.59102233549
 567393.548135211 563969.076346854 1855.38648594253
 515493.681830288 611769.306219903 2140.08417435945
 452501.121664220 -659728.658297528 -912.312208449581
 505519.133579839 -620040.003592115 -894.164514795827
 564334.473494788 -567032.390509615 -932.812045166262
 618430.814177927 -507486.311700502 -985.653005702893
 665486.540841801 -443989.376869359 -1047.46626305844
 705579.385369799 -377036.684317058 -1034.22452873759
 739149.441523194 -306034.687048056 -934.569070892037
 766249.859513029 -229914.584089834 -660.922886957045
 786167.890483838 -148121.481049677 -273.539471615654
 797651.613671415 -61252.5349409360 173.697145105161
 799499.392497992 28293.0181715666 475.939161896127
 791382.451163147 117104.404871299 611.842093450094
 774048.786290130 202109.128863804 613.573704084060
 748680.499569941 281916.804950439 651.651931052905
 716181.099842507 356488.563298185 732.438374522055
 676742.491098068 426636.587069536 907.367643006544
 630137.701629207 492874.489654549 1102.01326124609
 576386.549498561 554776.314930495 1336.39413439393
 517832.415265708 609792.711753519 1561.53526138508
 464916.787022209 651037.032237073 1778.70764600958
 391413.489052340 -697706.592464077 -995.700778573557
 442271.136828095 -666629.739284824 -1015.98712171112
 502796.513652830 -622249.528073681 -1091.17855605673
 562388.547132512 -568961.891074505 -1220.06520582777
 617659.423032639 -508424.206050232 -1289.89967732406
 667604.053233534 -440798.387454807 -1268.74875341449
 711887.847463484 -364985.977515418 -963.769122955410
 749605.059305564 -279449.706731406 -341.278820174524
 778780.917888303 -183029.687595537 644.508908868003
 796302.294671540 -76811.6994981116 1618.12269347667
 799240.216653924 34791.2439009645 2155.32614984263
 786837.590557179 144508.537303669 1971.98694930488
 761109.001883280 246395.755085410 1489.67383271498
 725198.001441318 337767.374896522 1029.15549395439
 681555.323072467 418905.287498539 837.673773994168
 631592.600361747 491009.299259745 809.449652540597
 575953.338720369 555226.865636461 937.705909410881
 515827.699022003 611490.490399666 1079.38521459751
 454648.647972155 658249.975649162 1255.56957975430
 403148.891260968 690991.317629094 1403.72228760474
 327592.821445754 -729850.397533645 -1157.82433531038
 374210.219423374 -707082.224723412 -1199.64965793023
 432750.763518028 -672848.379109620 -1354.77087395037
 494347.879433397 -628981.639703035 -1506.98911250948
 555524.462659689 -575664.824041634 -1606.78180789075
 614897.838458877 -511760.491082588 -1359.42101995787
 671405.197404311 -434988.232590173 -546.266011958090
 723236.297896064 -341946.937982601 1244.59227006305
 766301.041572760 -229711.732861032 3903.00787664604
 793878.159351128 -98555.7364905117 6650.93302323445
 798779.825372454 43487.8049219603 7720.19436428998
 779149.009093039 181341.131385354 6497.36078855577
 740369.578973737 303042.456207942 4261.01698047262
 689780.182155633 405212.770411741 2431.25494002396
 632762.847356330 489499.168334232 1320.30511825374
 572074.585353207 559222.558806667 893.596486781338
 509338.222839001 616906.779641248 774.588840846760
 446141.526593803 664045.936372640 855.941315108221
 386117.322169417 700651.491214059 949.410467254116
 338314.042149667 724943.077189999 1069.44782432546
 263755.040622015 -755269.109790841 -1360.27285126711
 304186.115852793 -739911.277987531 -1451.76762979319
 357192.646828018 -715828.716732208 -1631.36553756618
 416209.342857052 -683203.005710617 -1853.61983175966
 479006.171509873 -640741.675325311 -1786.94061688016
 544692.790288228 -585925.440178492 -1068.99937487768
 612821.071528332 -514245.919820924 1211.70887577872
 681416.405424221 -419090.259824746 5919.16706638406
 744547.304812750 -292349.145534809 13464.3232706433
 789067.909822044 -130043.286740199 21461.0638803557
 797680.824203361 55822.4229099218 24272.6141713956
 765474.039120222 231689.670780733 19219.5704032948
 706623.076223261 374892.819651977 11798.3864221274
 637244.498971042 483614.854284954 6010.09534783568
 566298.553421157 565064.884399811 2761.30609212718
 497416.593841451 626558.216279632 1238.46019493246
 431640.840682478 673561.894258407 747.835511074930
 370086.989677512 709249.768431037 621.330796950450
 314987.213499357 735379.207718925 690.062749207309
 273088.858769675 751945.406380134 762.259595921403
 200571.074838176 -774447.349977860 -1595.63483586243
 233175.828977096 -765262.146715277 -1696.93416783018
 277286.760290965 -750405.370110494 -1957.82447445578
 328884.154036223 -729267.303111129 -2100.91334851799
 387185.195075723 -700060.311068884 -1784.81940563947
 453148.657769518 -659284.671442311 126.344321199670
 528280.576729520 -600741.290377409 5434.54561239144
 613431.383844758 -513230.740981585 17208.8298788024
 703499.157927179 -379052.053209923 37529.6649744123
 777276.319353857 -179017.890594120 61596.4140104939
 793397.042630934 75190.3380684049 69767.7992031187
 737938.672803560 304548.309569451 51931.1305414254
 649109.332496877 466684.292052854 29374.2406980153
 558459.939852226 572651.044691880 13902.3952449180
 477011.857061338 642204.893791158 5706.36605731948
 405697.250338899 689496.237787165 2163.13309856231
 343288.077681645 722601.301116372 809.534783996503
 288572.380095340 746140.572355083 477.212467444863
 242188.708835691 762459.474495917 423.159437686154
 208088.697314464 772462.846642009 494.578299488943
 138039.432105676 -787998.604775422 -1820.45486950528
 161386.013923810 -783550.037684050 -1973.05729971319
 193769.722182803 -776175.501572761 -2210.32202891045
 232917.187167386 -765339.238818847 -2330.97537999228
 279561.028073271 -749562.301375531 -1409.94298967951
 336050.322618896 -725992.297808852 2316.07209716237
 407221.793504933 -688472.913975868 13246.0415295496
 499740.562330515 -623477.940470511 39174.3297100385
 617734.617021440 -500256.949177146 90260.3331112249
 738456.888071821 -262047.232819841 161284.445098546
 769891.127481637 110152.818492535 187440.679691478
 672049.231590403 414959.999828180 127114.235478743
 545015.440992719 582044.469408037 64671.5139070501
 439428.643219985 667925.171621750 27900.4055866280
 358383.842445630 715155.475745173 10661.4720184580
 295315.295294099 743489.212574630 3559.09405834557
 244296.736004072 761786.010285852 1085.96064426396
 202240.916607209 774014.544646182 310.364365837493
 167864.069765931 782190.263315189 214.607859993291
 143310.908206940 787059.037790542 233.711636798418
 76068.2430376957 -796372.681908548 -2043.01516025012
 89185.3565786527 -795010.187540805 -2184.92065610000
 107442.964144521 -792748.239377786 -2497.68277805931
 129943.106807275 -789372.423375512 -2442.58214714491
 157303.602952238 -784381.617465609 -1026.97627974112
 192169.744424412 -776560.218295288 5001.66862470331
 239773.630633789 -762872.587589451 23108.8977942906
 311316.560422957 -733524.616987182 70877.6091599303
 425346.875242823 -653024.528122282 180662.672934502
 583601.359709768 -401653.691085772 371596.239730819
 635522.089249317 175464.473576504 453126.795266738
 490778.735624889 572169.258947759 267877.904601348
 352312.261433065 708385.193873540 118602.224029180
 263537.220964364 753928.729177831 46255.8589443593
 206535.769847344 772707.868153666 16294.9767407236
 166516.436895636 782461.602110484 5110.52504901440
 136221.506563454 788316.015101033 1249.59385830179
 111895.381551460 792135.962162117 202.575791376050
 92509.7472898244 794633.214286805 -37.5312447304126
 78710.9102337974 796118.453878012 2.24737740922124
 14855.2714259398 -799858.996297297 -2215.16435982734
 17162.3922878269 -799812.249674918 -2411.96204472509
 20118.5973081323 -799742.463411989 -2689.65761347311
 23083.5556745925 -799662.265675671 -2722.18880156767
 25975.2965725059 -799577.589717920 -980.810303496606
 28488.6299578468 -799469.745598104 6043.49538170286
 31090.8171716785 -798886.727011487 28519.4406058777
 34683.1966891264 -793966.776797498 91726.9491982373
 42406.9108756789 -757079.721137595 255013.626601017
 57937.4394344501 -531752.792069883 594880.005747094
 63164.9444184237 242775.158502324 759651.507081233
 47023.1302243437 693102.365566875 396734.087355127
 36030.7428822471 783543.220052620 157358.850646937
 31081.4611279846 797368.696625281 56895.5570870946
 28082.2631555516 799281.079555041 19003.7459831046
 25553.3797511204 799572.954966868 5487.66515438425
 22702.0002138801 799676.962049955 1172.83965019183
 19836.5802467287 799754.026671652 -83.1059282921822
 16925.9636811077 799820.886323015 -248.102665377302
 14667.5139104046 799865.492178054 -241.781819707081
 -45251.0824047647 -798715.692684776 -2362.58338987178
 -53564.9304156132 -798200.713202736 -2533.70720781411
 -66000.1702725571 -797267.394021723 -2946.17613263379
 -82519.0162322615 -795726.991940203 -3027.58284071024
 -104809.565924571 -793102.511812269 -1833.20696393837
 -135598.356847164 -788414.152812168 4026.07325099379
 -180871.823183110 -778965.813514816 22307.9571816650
 -251749.514911148 -755930.647449899 72048.8583391823
 -368616.237688998 -684112.562051683 190031.765121237
 -537894.679513728 -433000.759485478 403955.017342058
 -596853.935165724 190921.880341842 497306.963236919
 -438966.099187376 604961.341869328 285185.095346655
 -295172.602747851 733469.563090678 122047.263822788
 -206361.763743312 771565.210228617 45847.0154930408
 -151314.196605467 785412.868624733 15186.8266702351
 -115108.073780167 791664.791476622 4121.80626618741
 -89569.8461387857 794969.829294710 461.707498634152
 -71056.9007498372 796837.976480739 -395.087215715753
 -57310.7817605998 797944.350403039 -536.613325852886
 -48248.8894867069 798543.574829387 -451.400045590937
 -103821.837216325 -793230.800410012 -2433.80317990924
 -122128.218096487 -790618.514448860 -2657.62210532441
 -148445.577595104 -786100.931136097 -3039.17084384930
 -182247.416439071 -778956.943497551 -3458.23339836885
 -224958.739588948 -767714.289834051 -2886.98236039023
 -280296.316461667 -749288.883294279 379.933722764201
 -353688.123709568 -717481.376175763 11188.6544203911
 -453563.762575866 -657892.659716624 38172.7857119458
 -585544.881745331 -536970.674576222 93806.6421262643
 -725990.992458498 -287279.887720734 174377.019645042
 -763826.574307616 121549.835992318 204437.280728668
 -648493.284462961 448817.535437238 134235.911329584
 -504670.003016663 617327.029458568 64927.0879912364
 -389521.433688941 698286.992722132 25852.0500539519
 -304949.271270942 739550.414767516 8433.62131696646
 -242162.505124671 762466.099115631 1663.97450020050
 -194578.457416595 775976.218530946 -363.570889466238
 -157476.802660997 784347.073679477 -851.254433386811
 -128984.980483851 789532.984611533 -735.540607624643
 -109346.118274186 792491.635631987 -658.689385293524
 -160769.815869150 -783675.272152408 -2476.71602077014
 -187849.396595858 -777628.209809249 -2640.36123156836
 -226034.749497044 -767397.196598318 -3136.02819680126
 -273022.386837407 -751961.372312427 -3587.59468422942
 -329733.644816359 -728876.715564020 -3802.23417551102
 -397770.385704360 -694098.568459029 -2428.48095123822
 -479836.969874984 -640118.062141585 2312.76053610315
 -576783.213355649 -554184.636766617 14160.2670520468
 -683056.406036392 -414918.241256676 35732.3277315390
 -772489.207459075 -198385.857924129 62477.8019376342
 -792346.022645041 84110.2602220819 71506.9543747955
 -724470.589098968 335450.315785118 51141.4818934425
 -618710.472793040 506454.742467415 26475.3600254566
 -514600.062758830 612434.402653610 10529.8554085792
 -424687.150914662 677963.128691260 2611.50974440333
 -350191.407164810 719281.502288530 -314.346125974395
 -288524.856670600 746158.145045083 -1195.68645183542
 -237918.191274847 763802.142032342 -1105.48057911786
 -197106.796201019 775337.344912312 -955.235936898595
 -168392.422048082 782076.314410707 -794.125019599707
 -216315.999437196 -770195.678361114 -2450.59612143097
 -250945.930019208 -759617.790671118 -2636.72196578934
 -298300.631751482 -742298.922710485 -3007.06493460801
 -354541.128197593 -717138.292194913 -3641.19268123351
 -418487.742151663 -681800.418942756 -4024.72337997936
 -490213.209399307 -632198.591445102 -3993.78332663798
 -568744.728302169 -562604.810307461 -2293.78451416244
 -651497.318343989 -464271.191695386 1872.09837810598
 -729852.523158971 -327453.449614851 9462.17595576199
 -786295.105745783 -146366.470441377 17800.6463579728
 -797175.318145907 63861.2894955428 20814.6064805205
 -755941.269747092 261384.002054679 15205.2676081242
 -682333.528230016 417568.333603612 7592.30035498214
 -597966.264010320 531443.697439343 1985.83925317213
 -515412.969275760 611840.713843257 -641.861447159022
 -439260.772384748 668615.973688613 -1628.97893841447
 -371360.768577971 708582.234618934 -1548.01279612721
 -311797.196507658 736736.520179215 -1344.65020956066
 -261884.695514628 755920.212343400 -1019.22809978450
 -225528.002498561 767552.146455980 -906.950840778830
 -271175.480946129 -752634.020694523 -2426.81413220271
 -311881.357699411 -736697.823062352 -2517.18389514001
 -366035.991364017 -711343.187364462 -2919.38629322989
 -427347.875091862 -676285.798827799 -3363.32548471769
 -493484.216020854 -629648.645307051 -3988.98499355743
 -562342.774978366 -568992.735680404 -4227.31268779858
 -631999.252935105 -490469.291923369 -4100.97179409711
 -698413.577066790 -390141.992922587 -2775.01840786986
 -755164.010690032 -264058.669642130 -579.607948052788
 -791908.759605400 -113472.728067166 2111.02942465396
 -798333.088194639 51526.4203633332 3050.95036868806
 -771834.080465789 210400.588108403 1935.13698947014
 -720313.453941958 348063.924563474 -180.243388243454
 -654997.941972459 459320.638358818 -1499.06287078706
 -584032.650157408 546718.544556885 -2167.16121128561
 -512826.251999560 614007.498174838 -2006.84956121164
 -444010.633354144 665470.838341361 -1766.57456635251
 -380164.182012111 703898.743199412 -1324.40075164008
 -323789.074911375 731545.914781107 -1099.78866508580
 -281511.483043349 748832.685149897 -945.814955597990
 -326213.451559110 -730465.019162457 -2374.82670586779
 -371659.645578092 -708422.934332103 -2460.47984339006
 -429892.803938963 -674674.007073278 -2676.06075834547
 -492933.881481916 -630084.346864292 -3147.11356176602
 -556805.780819798 -574416.990409529 -3527.54511135054
 -619251.045523755 -506470.010617906 -4033.72810612093
 -677680.824804058 -425125.521578427 -4121.96501232009
 -729432.025281558 -328500.280961065 -4060.28350544455
 -770169.048069451 -216398.824317552 -3344.58215283026
 -794874.006839883 -90377.0079862632 -2703.64157412451
 -798864.389010284 42557.7943861841 -2126.52491400357
 -781061.814597997 173023.178414928 -2328.41321091317
 -744802.893384587 291997.577198474 -2462.70505083029
 -695119.255085426 395982.461419868 -2666.73158480348
 -637002.995307954 483964.417756384 -2371.98533288891
 -573756.031365886 557493.973308977 -2118.06407762778
 -508519.300405052 617580.339655485 -1626.40295487001
 -443829.299483118 665592.774626208 -1345.84014975024
 -383985.816861839 701821.758340272 -1054.49946258457
 -337256.072294296 725435.991665850 -981.680400895500
 -382374.676881149 -702697.661802539 -2366.97640044838
 -430892.807122725 -674037.006003792 -2345.91290201604
 -490711.725233003 -631819.211738307 -2546.84063768010
 -551961.329958441 -579077.775563364 -2760.44907486894
 -610614.490400620 -516855.790350216 -3167.97952076153
 -664220.368536681 -445869.648852553 -3399.74309274326
 -711471.063762711 -365779.845626315 -3745.65908033775
 -750599.541719980 -276742.659443949 -3718.65750594825
 -779806.830633376 -178570.228170308 -3739.05184938750
 -796620.147071450 -73381.9295847063 -3381.37402335859
 -799192.474342179 35786.7201332532 -3271.02689215037
 -787030.439331271 143437.437812919 -2964.62471336828
 -761319.080065659 245733.213079715 -2906.25489220248
 -724378.504604656 339513.447163745 -2530.07148397018
 -678191.147811696 424324.734103700 -2299.36027606168
 -624841.011786431 499570.185343877 -1827.54075005439
 -565846.876787496 565521.786195943 -1556.07441613021
 -503896.918914789 621358.545589531 -1205.37589359324
 -443149.797779523 666045.888113350 -1063.79286935531
 -393791.585834552 696367.167515330 -977.206521069110
 -440087.248014759 -668070.018177096 -2380.11505008851
 -489857.812156343 -632482.333362312 -2328.48748470321
 -548262.986075425 -582582.349159277 -2346.17725586735
 -604867.395570961 -523573.280993388 -2540.31592942001
 -655780.358723101 -458197.569227142 -2666.20842036948
 -699862.662635472 -387535.241117100 -2947.93844912437
 -736509.077241515 -312322.298571166 -3026.70713398526
 -765533.563459806 -232266.942543890 -3229.64670581881
 -786189.436254593 -147974.345746552 -3124.63158869161
 -797752.892244068 -59836.3541112545 -3151.76821735978
 -799435.556146005 29907.9516704686 -2882.01256148872
 -791024.982398108 119463.864127964 -2803.99530818259
 -772965.435007177 206199.933852190 -2454.29491251069
 -745865.701791347 289273.493146211 -2280.58200679230
 -710531.798554958 367615.336806071 -1878.13397192075
 -667249.283136634 441333.929833746 -1660.28044345359
 -616760.909072163 509513.724193288 -1321.32477637545
 -560241.797341655 571075.971854564 -1167.42526851655
 -501669.215310370 623158.879176186 -1004.84514122491
 -451580.751501783 660358.864859411 -997.233511315252
 -498763.455736355 -625482.919764590 -2476.34906533838
 -547449.125757542 -583347.317773682 -2315.50287269845
 -601537.112787051 -527397.268087935 -2285.50939633804
 -650837.532991237 -465193.883168034 -2270.83969638864
 -692898.650156996 -399857.129592326 -2395.10433971913
 -727444.394259950 -332894.525621475 -2426.53477774742
 -755054.508105746 -264359.596839837 -2587.15053082497
 -776023.933177695 -194371.529095451 -2561.99385565125
 -790567.739417674 -122456.525351022 -2654.95592878661
 -798482.019003664 -49195.3422578579 -2506.71657058887
 -799600.670300959 25151.0362534992 -2488.66020826542
 -793818.923919487 99229.6625047759 -2233.85462719242
 -781151.814227435 172619.028389204 -2124.65694969012
 -761736.779092208 244445.879040158 -1814.27630552457
 -735375.445435996 314992.395194816 -1656.87031589053
 -701850.503205260 383932.279329112 -1369.68597668216
 -660627.299639756 451187.370993164 -1235.81024516894
 -612030.278049511 515187.170692795 -1057.30988376637
 -558461.064608331 572817.775571735 -1017.49966980058
 -510065.143184811 616305.539476972 -1015.73513214400
 -555529.019647515 -575656.576796018 -2648.38081895579
 -600643.398313880 -528414.281120699 -2419.82843379614
 -647704.312435697 -469546.683190272 -2244.09385156163
 -688429.761618712 -407504.177086016 -2192.93753952059
 -721596.917359165 -345388.611672455 -2143.77814233855
 -747904.523314300 -283961.242556808 -2199.25705697005
 -768210.591574892 -223266.089596347 -2177.20658394177
 -783288.048228657 -162649.318722882 -2243.35042356694
 -793481.504175117 -101893.998246810 -2171.55549596632
 -798967.967578698 -40563.9953047019 -2179.23566513513
 -799721.902969926 20994.7851674371 -2024.08150365105
 -795699.358009128 82817.3300639014 -1954.86698943466
 -786848.886024897 144450.033547994 -1737.34549279430
 -772967.592614399 206200.107379063 -1617.55518070098
 -753735.315180593 268106.572392252 -1393.01460529155
 -728428.359890915 330742.344699443 -1275.11934551701
 -696264.441593277 393972.831312891 -1111.55751392076
 -656580.215758779 457057.223695023 -1055.71888032880
 -610591.334088346 516891.847089071 -1020.36712093838
 -566379.511318060 564989.455173934 -1079.21331381446
 -602390.013848753 -526419.821635991 -2905.61594712085
 -641744.714174243 -477657.891809303 -2580.74053567261
 -681165.427544069 -419533.269929198 -2344.29972928755
 -714286.738556593 -360263.305246745 -2192.26250132218
 -740603.302084659 -302493.320721770 -2130.69472619793
 -760979.621485307 -246790.722513060 -2086.85542421067
 -776435.784029069 -192725.447481030 -2091.69127780709
 -787701.992496109 -139718.738763717 -2060.35335218996
 -795240.549428665 -87110.6379450761 -2050.68310522371
 -799248.823771915 -34603.8492365638 -1972.64219337660
 -799793.590324669 18071.4545163103 -1906.67439271920
 -796850.670647318 70893.4422697659 -1768.76568971782
 -790318.240228102 124073.976450472 -1651.52369743371
 -779989.938091157 177801.841959874 -1483.73590260540
 -765427.045417012 232636.202932816 -1354.70630988461
 -745954.847224456 289049.996959203 -1210.43802946409
 -720623.948902244 347418.854187308 -1124.28809299980
 -688651.419211704 407133.992108970 -1065.49853132249
 -650583.814706154 465552.917650367 -1086.69665516899
 -612647.563766984 514452.719657924 -1166.98198201402
# End: Data Text
# End: Segment
