# OOMMF OVF 2.0
#
# Segment count: 1
#
# Begin: Segment
# Begin: Header
#
# Title: Oxs_TimeDriver::Magnetization
# Desc: Oxs vector field output
# Desc:  MIF source file: C:/Users/Victor H. González/Documents/GitHub/Intro-to-magnetism-in-python/vortex_dynamics/drive-2/vortex_dynamics.mif
# Desc:  Iteration: 1419, State id: 8959
# Desc:  Stage: 202, Stage iteration: 6
# Desc:  Stage simulation time: 1e-11 s
# Desc:  Total simulation time: 2.03e-09 s
# meshunit: m
# meshtype: rectangular
# xbase: -4.7499999999999995e-08
# ybase: -4.7499999999999995e-08
# zbase: 2.5000000000000001e-09
# xnodes: 20
# ynodes: 20
# znodes: 1
# xstepsize: 5.0000000000000001e-09
# ystepsize: 5.0000000000000001e-09
# zstepsize: 5.0000000000000001e-09
# xmin: -4.9999999999999998e-08
# ymin: -4.9999999999999998e-08
# zmin: 0
# xmax: 4.9999999999999998e-08
# ymax: 4.9999999999999998e-08
# zmax: 5.0000000000000001e-09
# valuedim: 3
# valuelabels: Magnetization_x Magnetization_y Magnetization_z
# valueunits: A/m A/m A/m
#
# End: Header
#
# Begin: Data Text
 535375.056525351 -594448.042896523 -2252.36475109817
 583798.069215201 -546969.464893937 -2053.98496682256
 632818.096336747 -489425.707585122 -1932.27936372333
 674706.662700822 -429845.838015606 -1864.09435938945
 708760.123747812 -371019.644733575 -1873.55457823146
 736003.858941554 -313519.973602066 -1883.02302199663
 757643.236700637 -256852.036418683 -1938.36770479799
 774553.769878014 -200156.615964655 -1945.93250976682
 787184.130218426 -142608.861046885 -1964.14947735253
 795605.259691716 -83717.6871551471 -1902.52681202926
 799655.187244667 -23414.1670414480 -1832.56499263554
 799096.818442143 37966.1503277162 -1687.06399917139
 793731.319391603 99941.1093276490 -1538.59781062508
 783393.200709093 162152.108703157 -1336.68466105289
 767830.161085886 224578.578393972 -1142.73941251888
 746568.198191054 287463.157368536 -926.609667730575
 718892.705058731 350988.220330905 -740.136665844436
 684205.574815903 414562.907057771 -572.260999590382
 643334.771941582 475520.931662515 -463.423873268413
 603024.356490925 525700.912889900 -419.124602480783
 486350.984422440 -635183.945318991 -2018.80170504864
 536863.543857546 -593105.315633379 -1902.58880160837
 591402.015505118 -538739.587318055 -1820.19582877302
 640151.104146814 -479794.855726375 -1860.18228221964
 681301.444225723 -419314.732502139 -1870.08090822803
 715314.981942369 -358218.496198924 -1996.39419200602
 743097.177391098 -296314.857214064 -2022.46077647756
 765358.508731961 -232855.724584119 -2136.50181246045
 782348.019454785 -167114.311046613 -2093.68063241888
 793886.333499480 -98691.7845428503 -2102.65225375002
 799512.192897577 -27864.7715882171 -1951.38731300252
 798758.722434496 44509.1007105968 -1855.61007362854
 791361.949410011 117232.974076960 -1641.58918657720
 777265.950590117 189355.373241161 -1478.06560795313
 756433.572968240 260397.286817501 -1225.84851705402
 728618.325613156 330324.521533648 -1022.76793476827
 693367.685068099 399049.666622156 -785.412025497716
 650458.424118059 465728.952619307 -617.402602944484
 601459.251212167 527490.795397475 -479.481217827456
 555111.839112196 576064.804960068 -431.930311623443
 427665.579346366 -676090.720849133 -1868.00000978678
 477923.376442537 -641549.729907979 -1786.14242560348
 535981.573061880 -593902.626438651 -1850.31007819605
 591231.170517403 -538926.825720501 -1891.96391285915
 640532.252710873 -479284.895067287 -2102.99725932992
 683293.517234088 -416059.127455320 -2184.43745308611
 719764.059186754 -349190.293502935 -2416.20080727681
 750120.050438192 -278054.045300436 -2420.29392147494
 774106.286344878 -201874.126909298 -2508.84952735352
 790875.418128792 -120460.204356281 -2326.40625230866
 799248.082551890 -34604.8705317529 -2237.29135510978
 798198.369376770 53622.8387530281 -1988.53924590659
 787369.358513746 141583.731359738 -1881.56528053066
 767117.741151900 226997.095458977 -1640.08024021500
 738070.109078432 308626.591419747 -1463.26811656807
 700724.044075794 385985.035334827 -1168.99599481072
 655404.594463110 458741.673603781 -945.756760066370
 602914.784857162 525826.276985051 -699.022662445580
 546284.563333963 584442.354776709 -556.602260317825
 496050.851336463 627641.078984024 -478.393290990227
 367512.434295689 -710585.286737700 -1777.89481093991
 415389.315325923 -683702.036231087 -1800.65724894554
 473746.764678442 -644639.862869604 -1857.45960074613
 532854.402864303 -596709.005143723 -2132.72795142032
 588936.249868044 -541432.217680049 -2290.68754522373
 640531.413065241 -479283.271600759 -2656.01963832938
 686990.752135942 -409922.126989312 -2748.86963158393
 727715.318031955 -332297.806943569 -2929.74438205392
 761450.832853120 -245327.249719773 -2677.62809657564
 786066.922708600 -148636.632089257 -2438.16008421075
 798793.912612049 -43869.2153307524 -1943.48146345613
 797365.591110745 64845.4403029084 -1784.09207607814
 781330.683547258 171812.739400827 -1656.96323339686
 752164.950840447 272479.253374139 -1715.57799564354
 712139.081252366 364493.492838716 -1556.48041093225
 663299.556304039 447249.094325704 -1395.07408515698
 607395.670593461 520643.183701079 -1083.79422588508
 546566.438689937 584178.394740297 -855.111951058741
 485059.217372888 636173.835332525 -637.871388601505
 433651.884993090 672269.092836033 -556.290713348918
 308579.697961798 -738089.034405294 -1774.06213686966
 352256.351043092 -718270.345598648 -1781.51155122394
 407837.696124576 -688232.700629916 -2040.44197448225
 467317.941941851 -649314.170376255 -2247.06204393397
 527353.071251459 -601574.034447757 -2723.84285574283
 586185.151526125 -544406.432104831 -2933.39618559489
 642710.202758865 -476353.952487367 -3241.48412349768
 695526.098677025 -395265.593665961 -2925.15350234028
 742173.990500567 -298617.389162220 -2328.67224024318
 778302.741136341 -185050.869206086 -1009.42841782987
 797991.337569630 -56655.2901150771 57.1472581788542
 796126.922062843 78623.5550530356 510.448396099118
 772184.905776048 209118.291662199 -106.695451215676
 730464.645576328 326221.961377773 -795.913242852139
 676612.940976962 426840.899088639 -1332.27914087232
 615274.954265147 511307.027539642 -1361.70576728046
 549839.369850305 581098.206644619 -1241.61065887128
 483434.082901035 637409.276714223 -949.446305734732
 420480.775824691 680584.563042232 -754.791680206997
 370568.521523402 708998.291448668 -627.358613422042
 251388.861238527 -759473.841944807 -1767.44074607409
 289416.616401920 -745811.256732637 -1895.12040475382
 339490.070279868 -724390.910619694 -2073.83532150348
 395732.235601456 -695262.070028499 -2579.08618702579
 455837.432817765 -657422.182732903 -2882.44563073078
 518748.592517327 -609006.318730397 -3346.86536065374
 583646.303018823 -547126.619861737 -3074.86766085682
 649221.443628322 -467447.221492558 -2147.61543215878
 712124.089844305 -364525.735240348 518.662611562739
 765170.534398333 -233442.403997481 4324.03797929653
 796427.186308743 -75088.4332780074 8090.98857944553
 794107.709875112 96537.7061112488 8568.33797673220
 757677.702457995 256689.736379365 5905.79676806975
 698257.250963068 390423.834478247 2457.83416865369
 627857.879782424 495776.604559378 202.895768817016
 554332.780234188 576813.935852406 -923.127451538771
 482067.068565474 638443.490916332 -1118.17317908339
 413907.780227906 684601.546797993 -1035.17563818220
 353188.649241027 717814.134841162 -803.660085396121
 307236.525304908 738650.955945793 -694.837343603621
 195571.086674787 -775724.592037946 -1818.61606886970
 226743.599267529 -767192.142734173 -1885.82028703796
 268975.927223907 -753423.305563550 -2296.34660525863
 318345.893030104 -733927.137166696 -2617.19719631445
 373988.429278439 -707193.311884754 -3205.36913945159
 436048.611230360 -670709.959247302 -3123.97352035629
 505225.481866231 -620275.778227787 -2274.07496529357
 581747.604382379 -549152.169485306 1272.61343141946
 663440.649934567 -446959.649693284 8577.61974306224
 741055.612175267 -300690.117252632 20543.4429962086
 792636.386762593 -103419.943015457 32122.7920115982
 789902.782216879 122294.984536756 33129.0115033351
 732461.590443635 320907.537378964 22767.7618168532
 648233.642400071 468677.910631459 11582.7866623656
 559650.573676107 571641.288085800 4180.08846938732
 476682.856962144 642474.135313086 662.821326533858
 402333.862349649 691467.271039447 -690.136272064624
 337333.397383282 725400.146419547 -898.100413182496
 282730.224339466 748373.519598965 -833.911274010080
 243090.251831382 762172.308519493 -708.230628693965
 140493.176906779 -787564.840919184 -1813.44715421744
 163818.992992755 -783044.887778737 -2010.28814473732
 196106.233467721 -775588.331350238 -2255.09832525379
 235166.140507622 -764649.408679820 -2858.00006159005
 281207.255512147 -748941.546982192 -3006.43497303045
 335798.774785491 -726107.418080732 -2683.33015065893
 401592.950359552 -691898.100959723 346.568664893385
 482307.801982707 -638204.814571970 8590.62301396388
 580739.652326411 -549524.258934443 27650.4079237879
 691233.879810175 -398117.267230109 60814.1836729071
 779472.288621785 -151120.263076328 97906.1660900812
 776494.417069873 164806.029686335 99475.5891580774
 682240.147053191 412783.043731844 64486.7471370371
 565823.584063575 564657.724192880 31706.8798018582
 462072.591735299 652939.094639759 12627.6940901984
 377080.525876365 705546.870178267 3727.06136993755
 308347.719861307 738187.997829624 404.371888900865
 252650.082109431 759057.008712657 -627.323115295186
 208353.856928677 772391.186506499 -724.782744926908
 177337.038075786 780096.855918547 -685.793339257648
 85635.6959449327 -795401.227868375 -1847.77853291726
 100267.669477577 -793689.250483532 -1941.16573850870
 120880.859871373 -790810.969379797 -2414.21319376880
 146431.343992487 -786479.911891099 -2685.08627869913
 177715.075403748 -780005.571693737 -2942.80494891120
 216740.730566073 -770078.930665556 -1377.04708665489
 267443.197466031 -753960.640015268 4182.03741177226
 336687.238458616 -725394.526473793 21082.7991730849
 435542.903540284 -668167.922354933 62080.6468361174
 573787.843225283 -538060.857133496 145801.320253441
 718504.059887385 -237752.854582057 259278.799872699
 715645.164594193 243044.518139721 262262.007532888
 565912.526372647 544837.094265033 151312.766174452
 423608.885188044 675249.796893669 67773.3294504725
 321753.107756672 731985.374772010 25929.6889453896
 250422.892000055 759748.349154950 8415.52842417112
 198555.155891991 774966.004651912 1881.94116801074
 159418.577156615 783955.169374291 -98.3294829410450
 129716.409434282 789413.267435533 -588.489789894238
 109526.972631724 792466.712645520 -592.971274600840
 30709.1136132362 -799408.367391024 -1792.34101263215
 36077.5899893849 -799183.555825457 -2012.85834977678
 43722.9976110514 -798801.133162864 -2247.02862197578
 53411.6286865818 -798210.178317317 -2776.53591441567
 65569.8158717900 -797304.598541014 -2444.66600830777
 81372.0018338710 -795850.752128101 -421.491025858185
 103092.782114955 -793286.609323989 8260.37184676217
 135688.701790605 -787681.681476525 33854.7614479162
 190011.286471186 -770208.022428693 103321.407269006
 287554.129994586 -696093.277387862 269753.167726501
 432079.579180054 -374638.787934720 559422.037312075
 430382.660894125 368779.901519956 564599.105061835
 283598.300989332 694627.788323716 277604.465678181
 184765.400928131 770527.309251975 110224.372607778
 129647.925445080 788428.420089100 39648.9826299955
 96582.2836566602 794046.527566864 12726.9219637035
 74652.9398012726 796502.222144253 3338.96665078766
 58996.4103085730 797821.606020357 329.450754264410
 47525.6700672927 798586.984085179 -373.543028612291
 39896.7188429628 799004.386909074 -491.452560028637
 -24320.8833294448 -799628.258879022 -1772.63537680958
 -28471.6779665963 -799491.027321178 -1860.31897640253
 -34284.6208007552 -799261.646977456 -2320.44121533691
 -41507.7391285075 -798918.562319677 -2497.67361776742
 -50371.7530262896 -798408.762397149 -2476.81741584547
 -61665.0760172331 -797619.842236604 75.3010312490519
 -76980.5541845672 -796238.876772290 8811.66237653614
 -99990.8245235538 -792911.606393098 35958.5797580593
 -139165.549714447 -780176.285164902 109352.246611443
 -212452.520434295 -714819.345793375 289650.184603162
 -326897.597219279 -395291.169438085 613907.853261816
 -325861.885628190 387066.882569772 619671.896984653
 -209725.534970215 712215.786188002 297932.666698474
 -135226.000760959 779815.642309556 116625.437737787
 -95208.7901933976 793219.145078349 41697.4118031708
 -71629.9626448827 796671.211479742 13569.4233809917
 -55989.2605701155 798030.066566782 3635.32065022140
 -44690.4421774716 798750.550760431 567.483824533731
 -36274.6124950908 799177.125224674 -273.872153852676
 -30585.1003637136 799415.045424271 -369.844633099287
 -79397.3947666552 -796048.557447867 -1657.67591434203
 -92892.7312113588 -794586.349790843 -1863.65612652850
 -111825.558238067 -792143.155243186 -2065.46026675882
 -135192.702203985 -788489.881230092 -2576.91065834689
 -163690.230343617 -783070.960256623 -2319.41648349870
 -199194.028924395 -774803.913573950 -796.461773690165
 -245486.341472870 -761381.071260140 5943.10331630146
 -309526.091144068 -737280.953930018 24706.1505119265
 -403353.096673223 -687143.151677730 71697.7580299203
 -540301.142793698 -565127.039471578 169428.758933998
 -691905.270113459 -258232.732825105 307543.416263297
 -689371.670251088 260915.553959714 310949.793306121
 -533065.565011247 570073.792698906 175661.533288099
 -392232.287241843 692907.375768009 77673.6857070942
 -295464.751699016 742832.301038024 30012.5480090009
 -229358.697684688 766349.928445824 10118.0515646339
 -181868.870988523 779047.988605929 2818.72567246121
 -146171.103455516 786532.813642026 376.269790817735
 -119065.661952117 791089.965040491 -188.032280458280
 -100593.634717431 793650.326506153 -282.649983118662
 -134526.284176139 -788606.466921155 -1587.19749698243
 -156854.323514849 -784470.521367181 -1649.93957522983
 -187730.821677037 -777658.590069573 -2062.97927034151
 -225055.013338782 -767688.160410363 -2264.80392821576
 -269087.437144757 -753382.571535747 -2579.16208319561
 -321458.126444644 -732572.420211619 -1523.83988296397
 -385078.602371879 -701220.880730353 1935.56789290496
 -464268.869780029 -651386.504581834 12249.0081979741
 -563207.859752750 -567082.476901789 34847.8278183586
 -678153.376350220 -417632.956565531 75436.8062362851
 -773869.629322349 -162336.401193397 121542.953971293
 -771009.298047512 174052.645959328 123492.261939118
 -669471.276157528 430696.874053919 79425.5190741225
 -548664.656751688 580868.297343188 39485.6375556645
 -444490.367778285 664951.203509775 16377.1152290794
 -361094.463863874 713847.008131955 5765.16677269727
 -294589.410362702 743784.164546199 1481.84765366494
 -241108.149798499 762801.962403077 162.033205540728
 -198714.953027613 774927.306838974 -191.202845921689
 -169061.849083703 781932.262105865 -169.299746945227
 -189946.933486210 -777121.667890344 -1440.74790162579
 -220302.195523691 -769067.218085681 -1598.97260478982
 -261436.515771724 -756073.997205617 -1748.99132706534
 -309587.252009626 -737665.714338493 -2242.16025509152
 -363986.327249091 -712396.338840712 -2325.93681495463
 -424972.200745232 -677785.662990431 -2285.52802979207
 -493521.231959430 -629632.061327415 -510.836407188729
 -570389.320567574 -560929.130412284 3812.30079876729
 -654047.963354055 -460479.625092593 13408.0761855512
 -735577.457032147 -313254.752642253 28235.8752858988
 -791287.135999853 -109543.272896635 43184.9483529233
 -788621.359861375 126988.532642881 44161.7860554219
 -727102.260921669 332211.133249363 30952.6268315234
 -638974.267886220 481080.572925233 16533.8239133706
 -548441.528403276 582374.149001095 7227.75884545431
 -465189.643542911 650840.030573844 2418.70689795459
 -391543.597122185 697634.062357066 571.482105952465
 -327674.280943637 729814.744237550 -68.5678441722379
 -274282.017740538 751511.387910598 -92.6545424371313
 -235611.304361691 764517.697682381 -56.4571965978242
 -246131.125480250 -761194.874652052 -1353.46713022911
 -283531.006803102 -748069.701539435 -1374.70721287491
 -332842.508479329 -727470.305830111 -1678.89387138379
 -388337.008747313 -699421.892441280 -1839.56816871209
 -447857.044582009 -662886.732810412 -2290.65104406412
 -510478.202940507 -615960.366610770 -2197.97346578144
 -575609.739548138 -555580.687454971 -1878.15451630588
 -642160.989832951 -477105.086021099 -5.43725298225664
 -706973.209296502 -374403.174059196 3338.35159990995
 -762603.000256348 -241580.211164768 8698.59607084989
 -796007.216404355 -78702.0216334185 13360.5098332437
 -793710.811703158 99113.3477362403 14131.2308745542
 -755154.685095903 263886.060047500 10273.6989596768
 -693114.354323142 399448.825810495 5755.63982811804
 -620772.997400747 504614.003801609 2364.92397381075
 -546276.309290506 584449.873198340 734.592667036965
 -473828.708855029 644582.310057797 15.0110119548551
 -406024.197625296 689307.151648198 -40.3655903053116
 -345918.805913698 721346.088704731 -5.06243577965993
 -300572.027038043 741388.187353942 110.518225788214
 -303666.078692160 -740125.262699915 -1228.07373887710
 -346916.914385083 -720865.405359541 -1312.20019780120
 -402047.327688822 -691632.885531708 -1377.66082923196
 -461205.919717307 -653671.281665629 -1719.05303201179
 -521126.351660127 -606979.407161654 -1823.42729275578
 -580160.175355922 -550826.213526069 -2157.17952880144
 -637269.580823193 -483615.310787341 -1926.79254112805
 -691138.065591951 -402896.657560397 -1567.67869049456
 -739248.877786459 -305795.768147042 -211.836780108241
 -776989.703268224 -190486.438353375 1384.85327839119
 -797817.845072027 -58965.0327883903 3132.25045153211
 -795964.560173822 80179.3226145291 3419.82051715288
 -770879.268154070 213864.638645523 2658.99741728598
 -727499.705960450 332779.952148043 1296.64019897956
 -672117.542196622 433886.837546359 470.824374752304
 -609678.618369409 517969.092503281 -38.9165200480935
 -543651.248498826 586892.936200754 -37.9911419750566
 -477082.547538675 642177.734555635 8.66025791126040
 -414285.689759413 684373.677983965 190.113831703785
 -364655.035746056 712058.021191259 281.713027964606
 -362895.859410235 -712955.266204345 -1176.27139703180
 -410548.112982379 -686621.385296976 -1148.99063082825
 -468760.203131832 -648276.307625047 -1304.19777595730
 -527878.455950923 -601117.704938437 -1356.66960495768
 -584179.086498701 -546563.885030638 -1647.56722451210
 -636207.063693282 -485013.194681071 -1665.26035045750
 -683345.020241682 -415976.063414591 -1870.28794438899
 -724962.943274467 -338269.387440098 -1597.62314777338
 -759742.517189604 -250578.194960836 -1369.59284969268
 -785346.794295375 -152413.939681958 -635.358640226761
 -798709.684377660 -45418.1273319101 -183.823288016401
 -797285.754144557 65843.5661765318 225.901090048229
 -780605.198651451 175087.182537021 48.4724235898128
 -750404.877025560 277295.003893997 -36.7652281585820
 -709256.244592825 370075.031176905 -225.400745772890
 -659436.435600551 452927.782729327 -105.044449030279
 -602788.359452459 525971.665841686 -20.9841756931308
 -541499.932302166 588878.407721899 210.322774672773
 -479795.370317733 640153.326478722 348.166478764321
 -428394.358468535 675631.581799494 489.190604690971
 -423282.305504444 -678845.196559689 -1135.32140012607
 -473535.770139073 -644796.551781947 -1131.90498976771
 -531721.729094302 -597721.308348486 -1113.71232334383
 -587247.121217061 -543267.185074122 -1258.66751561495
 -636947.151087840 -484042.061961378 -1268.45309760815
 -680230.290712407 -421051.779986501 -1466.34495053861
 -717320.162686801 -354188.914289494 -1413.22235023744
 -748378.426196221 -282714.412043478 -1514.07627855301
 -773076.203719425 -205794.962319977 -1271.50559645594
 -790461.977842275 -123160.486777170 -1164.50954910793
 -799202.392804087 -35705.7939775075 -794.740622429012
 -798153.728428217 54315.3072682221 -687.889884855696
 -786948.385156264 143916.743631989 -458.260094184989
 -766040.116095708 230613.002181044 -428.669009402887
 -736206.672667532 313049.020430712 -214.306260164008
 -698056.950033193 390789.567678176 -91.1277099054560
 -652006.291836097 463559.885069568 168.405556353830
 -598900.840644015 530393.878574232 341.536053192729
 -541824.241710716 588579.800824590 556.017889570692
 -491348.613824154 631328.810008257 688.001920102849
 -482137.320317128 -638390.325296174 -1181.91609890400
 -532882.958666585 -596686.299375196 -1101.13608641391
 -587793.646957848 -542676.148538664 -1107.43091601601
 -636983.312159776 -483994.932560634 -1079.48394584484
 -678615.851794109 -423649.801337638 -1171.11926564966
 -713133.321050692 -362545.923998583 -1148.65104529956
 -741440.729643512 -300439.825265266 -1247.32524723192
 -764224.940524920 -236556.309863617 -1162.98898962408
 -781704.574853388 -170107.519530864 -1178.75032982941
 -793635.004766584 -100710.019433112 -985.492225597689
 -799485.592102742 -28670.0768305628 -902.615454042993
 -798732.893824248 45003.5658738134 -665.869193494472
 -791103.553997002 118974.177390984 -558.540465302184
 -776585.248717970 192133.404245075 -326.261930474295
 -755199.863385207 263956.690134864 -179.097772967744
 -726763.358958501 334387.521607243 73.9508123185222
 -690857.376832399 403380.730794182 266.270930641595
 -647294.633541132 470116.359940382 515.272022913515
 -597683.323831834 531765.112210434 714.037221840738
 -550874.806765378 580117.350983442 897.975033961245
 -531261.965021727 -598129.663762695 -1276.65515287971
 -580160.904292260 -550828.408759026 -1178.65804499949
 -629714.660607030 -493414.861645008 -1104.77346648144
 -672121.615603770 -433879.404601278 -1093.66403305076
 -706661.509354449 -375004.476940742 -1073.99780877516
 -734364.674805865 -317344.144782768 -1103.70710360795
 -756438.153986651 -260384.626181235 -1079.64888985225
 -773754.490274911 -203230.935261963 -1084.31174520722
 -786740.904264252 -145043.952101261 -1000.75787067103
 -795436.086807458 -85326.2181614609 -931.825466759005
 -799637.818277514 -24057.3871282283 -775.696422421647
 -799079.699229479 38356.4522984139 -645.636434644381
 -793556.986907419 101326.716690324 -452.786017506826
 -782921.364603649 164420.360640457 -286.101419764578
 -766951.296776966 227564.724696841 -66.6766967364879
 -745196.733226905 291001.391493654 137.610702756669
 -716958.392144321 354923.258458942 380.182480611169
 -681641.378301325 418765.632650073 613.431866649346
 -640090.508818470 479878.522763228 862.502808664422
 -599140.224729796 530122.473380367 1074.39648796414
# End: Data Text
# End: Segment
