# OOMMF OVF 2.0
#
# Segment count: 1
#
# Begin: Segment
# Begin: Header
#
# Title: Oxs_TimeDriver::Magnetization
# Desc: Oxs vector field output
# Desc:  MIF source file: C:/Users/Victor H. González/Documents/GitHub/Intro-to-magnetism-in-python/vortex_dynamics/drive-2/vortex_dynamics.mif
# Desc:  Iteration: 810, State id: 5131
# Desc:  Stage: 115, Stage iteration: 6
# Desc:  Stage simulation time: 1e-11 s
# Desc:  Total simulation time: 1.16e-09 s
# meshunit: m
# meshtype: rectangular
# xbase: -4.7499999999999995e-08
# ybase: -4.7499999999999995e-08
# zbase: 2.5000000000000001e-09
# xnodes: 20
# ynodes: 20
# znodes: 1
# xstepsize: 5.0000000000000001e-09
# ystepsize: 5.0000000000000001e-09
# zstepsize: 5.0000000000000001e-09
# xmin: -4.9999999999999998e-08
# ymin: -4.9999999999999998e-08
# zmin: 0
# xmax: 4.9999999999999998e-08
# ymax: 4.9999999999999998e-08
# zmax: 5.0000000000000001e-09
# valuedim: 3
# valuelabels: Magnetization_x Magnetization_y Magnetization_z
# valueunits: A/m A/m A/m
#
# End: Header
#
# Begin: Data Text
 532502.612557348 -597026.520767444 548.743946990297
 582883.796845033 -547947.349860040 425.625278386705
 634828.633693373 -486818.783979249 278.222881378923
 680048.940117955 -421347.147595023 142.330547685123
 717403.936788574 -354022.019086394 38.4999868976422
 747441.690611842 -285185.762487633 -3.10777984884102
 770759.206037447 -214313.428703193 24.2075767573209
 787480.007185485 -140979.517392095 118.148379419061
 797317.782686414 -65454.6087029735 218.200733855402
 799924.979091947 10952.3006077056 273.744672741326
 795329.022734559 86323.1501924794 243.591743094403
 784062.884204668 158887.878487728 188.897659523302
 766866.742536648 227849.461212028 149.052402519599
 744260.422474591 293387.781271658 182.588165089654
 716190.798902053 356469.731704150 264.474592086401
 681998.694334653 418183.713920071 402.911709137473
 640557.979159295 479254.805462940 553.873666869604
 591003.264467600 539179.577296521 724.441154381210
 534452.763328863 595280.989757798 887.131962092780
 479813.728289158 640138.825901690 1034.27194887940
 481292.532985707 -639028.461023456 351.701856096132
 533801.402289842 -595865.757498723 248.905349681586
 591668.004627385 -538450.515939274 119.100704892021
 644605.029629731 -473797.800410640 -10.1041500828370
 690308.151560991 -404319.983197695 -84.1157736485246
 728607.605319189 -330349.742213675 -72.7351075054669
 759474.598517745 -251392.775195753 82.3752827775592
 782374.104875700 -167004.931354601 336.040462530630
 796191.872849696 -77962.3557181175 610.490766007612
 799888.556275099 13334.3061309519 702.723377087621
 793328.266820446 103101.452963558 592.841016483390
 777562.651479147 188138.788634886 345.305250613009
 754205.175531821 266785.535981450 176.045747423697
 724493.567636178 339277.264799751 89.6872438956029
 688951.837058582 406626.785704382 152.844130967044
 647254.870879940 470171.319612366 249.672101820515
 598838.228274054 530464.520262914 411.217494924576
 543560.605040966 586976.635229576 546.206978504442
 483891.366974073 637062.528639379 692.511055744674
 430526.255508498 674274.799131354 799.108380418526
 418217.862177254 -681977.868447812 81.8734829818740
 470320.664771494 -647146.407142591 -3.36686506444366
 531970.166879893 -597501.234460012 -127.939599755910
 592381.211577813 -537665.743262987 -220.660514908959
 648054.885401845 -469068.032485302 -215.423231198067
 697642.489331305 -391528.997354407 36.1976996545403
 740043.224071717 -303867.832253059 605.827834000895
 773220.889137738 -205249.114982564 1502.46461533476
 794136.671187985 -96650.9195966082 2355.25276717475
 799810.897031709 17186.7405729518 2673.00164802984
 789577.442383818 128696.663682118 2152.03060375219
 765871.562886793 231168.878102033 1303.44098002151
 732336.261411214 321998.938435238 532.793417558749
 691954.414423220 401496.035794704 146.973999217678
 646166.253103027 471666.379252683 -5.78435919379855
 595503.082035324 534206.021467557 76.9040538356468
 539985.466612990 590267.451895993 176.292267543557
 480605.812654696 639545.104318276 335.238787717110
 420691.950065416 680454.327327131 437.689318023622
 370740.679184465 708908.361004121 533.381938650587
 351386.304482604 -718698.557796915 -219.186437741680
 400464.158055264 -692552.067786259 -302.519530430458
 462018.916938627 -653099.041286172 -403.313701988439
 526753.976992861 -602104.694548683 -429.563315713816
 590972.995983078 -539213.219672089 -147.477607669593
 652759.726131518 -462497.801011933 723.878327344036
 709834.761326176 -368955.342881348 2562.53240325208
 758096.072390468 -255464.317225262 5322.37266413791
 790571.136832010 -122192.082005311 8146.94441812208
 799615.425288263 23075.8395920634 9092.70411883314
 782967.040446493 164039.215773523 7331.38887714765
 746474.259821524 287674.894361377 4397.11019650464
 698453.564815815 390075.046579546 2018.86900124133
 644670.367016568 473708.553759212 569.197750220374
 588081.831419760 542364.968844107 11.1674922352000
 529569.792792621 599629.727606989 -155.985733524631
 469851.029746041 647487.457809631 -42.7294492805442
 409999.885759786 686949.845762966 55.5265807445718
 353431.547587020 717694.993487795 193.630575904354
 308572.932687374 738093.949443702 258.857705265582
 283470.228017131 -748093.806278912 -535.569832198271
 326937.079160471 -730145.038156691 -607.885832963766
 384176.466146109 -701717.877852183 -680.266211157965
 448356.827435483 -662552.571151980 -495.733688310026
 517170.994189539 -610355.646264399 384.502501070016
 589381.505829402 -540944.945465952 2829.58673736020
 663035.022573602 -447574.413469075 7855.14154155401
 732242.353327741 -321817.658049385 15954.0264717138
 783804.821512781 -158227.838736894 24778.0713932492
 798860.610855826 32211.1388869503 28002.9811745612
 770504.551442823 214107.753891410 21922.7263238190
 713767.771158671 361065.580749214 12931.1737060548
 646425.099458349 471274.174951653 5936.56583399082
 578358.324169767 552718.227460832 2051.80313307746
 512751.855219783 614072.849592994 265.257256153996
 450331.147976908 661212.370135059 -242.367855385921
 390825.566004993 698036.721292884 -335.683718502238
 335038.166068346 726463.621834992 -182.833111975856
 284919.748345995 747543.128599961 -88.7999853154895
 246766.466669352 760990.348761969 4.31968000711583
 215115.432034153 -770535.290780251 -846.500415815870
 250611.892910546 -759732.086464431 -914.291088988032
 299165.407539090 -741956.383285121 -885.570117579676
 356845.106277809 -716003.809529940 -338.916202188683
 423407.957613416 -678765.444042705 1781.40482372686
 500304.908019550 -624211.239290840 7438.26287128734
 588593.329128166 -541445.357047735 19870.0336505772
 684496.451356231 -411968.781170955 41789.1304198112
 767868.213774571 -213614.896935893 68899.0717043251
 794576.293492671 47753.5516992783 79800.4518756138
 743714.211006188 288696.530065307 59527.1860219694
 655574.268888270 457314.789555304 32947.8561608980
 565952.938263847 565226.015710764 14724.9052374807
 486460.072425931 635082.520065451 5175.96780066286
 417852.675290863 682200.690505743 1166.02991199778
 357703.326268802 715575.468410644 -281.753654606332
 304422.077216628 739815.472331492 -515.559932498094
 256931.685578102 757618.550816765 -490.310411452458
 216222.844951248 770225.666954882 -321.379985246199
 186003.160867489 778076.319331132 -255.819120278181
 146369.999460161 -786495.074316676 -1149.49277486984
 171749.188182062 -781345.508295737 -1188.70723053036
 207491.116454463 -772623.029032736 -1044.79699437064
 251794.139398851 -759341.624716468 91.3090798363137
 306460.267104396 -738962.385608068 4086.23821330824
 375811.760105726 -706067.483859197 15304.5484408513
 467195.332561134 -648041.633077607 42078.0587860148
 586904.687622194 -535073.385200005 96121.5901746413
 717900.688798229 -306181.355422305 175703.097908910
 767245.609799416 76550.7777961544 213246.694376082
 674409.927777968 404794.992359538 145987.203121222
 545935.135617114 580189.140790940 73043.7444754458
 440608.066511490 667044.552491758 30267.0896532505
 361739.419512530 713466.521887126 10493.5464465109
 301078.300108365 741178.407103038 2534.96510049356
 252391.955229871 759143.133503774 -61.5574085393100
 211421.633600995 771557.063772202 -768.237402070145
 176640.743103121 780254.801396077 -701.978878699858
 147473.983158660 786289.428223711 -599.462217037181
 126339.395812391 789960.836905816 -482.929418970625
 77386.9289823057 -796246.956468722 -1430.92172545082
 91041.2304017260 -794801.450142522 -1466.02124261886
 110349.311645947 -792351.954933934 -1186.98426202671
 134765.518671561 -788567.071953713 477.501344042858
 165878.438307519 -782586.407435339 6546.64815828031
 208373.300192931 -771999.328456430 24445.9532342015
 272138.561454953 -748861.901731886 71738.8005456769
 376070.152494605 -681952.123068372 183064.311773829
 530632.549541825 -455321.031964884 388731.083420374
 604757.520433271 129605.762371145 507415.695302773
 471123.245080694 570263.744367317 304700.098137175
 336035.583776055 713782.101961615 132646.889731898
 252117.451524565 757585.709721705 50006.8301556770
 199696.323877032 774503.104516031 16319.2930309528
 163720.331182833 783057.653812837 4045.23948838532
 136128.826370505 788333.015050453 -3.52853168589887
 113786.615244149 791866.013958300 -906.713336282428
 94754.6217170549 794368.021081822 -1004.36338421191
 79085.9640148944 796080.884526990 -797.236828632302
 67619.7275463414 797136.789073543 -715.508266616145
 8824.08994235452 -799949.529718883 -1698.62863078220
 9861.42853322898 -799937.336550886 -1734.88303850369
 10790.2913961545 -799925.854443571 -1482.22950629705
 10906.7159813229 -799925.570674694 353.450518219245
 9717.71131291494 -799908.944779093 7158.64157763670
 6239.13636833319 -799478.098736495 28210.6862386604
 -732.582130639533 -795247.917895737 87064.4152677660
 -13898.4654668352 -763211.736574490 239404.840829541
 -36416.5665662702 -564686.990379815 565510.774941831
 -50476.8702897911 173394.278268922 779350.056027038
 -27474.2327208329 677515.502314972 424520.801209190
 -7697.79802864532 782092.409857869 168143.410064802
 3620.48582603226 797785.476328136 59373.6123397710
 10042.4223174780 799722.378358328 18527.4743798840
 13132.5669714597 799881.226626760 4190.34304210789
 14375.5885801065 799870.813754940 -154.129769368483
 13977.3964549055 799876.895120297 -1258.98413679705
 12941.5484418974 799894.425655877 -1193.36858615111
 11327.8854097744 799919.109046806 -1047.85204448508
 9971.57732009036 799937.347313746 -898.898435327887
 -58347.6818728234 -797867.049761645 -1928.45137756742
 -69649.0878837117 -796959.787960630 -2025.07548394478
 -86940.7958049308 -795259.479440362 -1912.69052635781
 -110706.131609288 -792302.844380902 -595.994999451874
 -143946.658547941 -786928.405831336 4800.37380151623
 -192251.330395687 -776265.166390851 21255.9970190467
 -266950.960247131 -751319.326549454 65241.5080788996
 -386940.206936090 -679641.599243875 168417.851884782
 -559094.274247479 -447907.249603979 356079.609435707
 -640934.115354521 124341.191262852 462323.185585637
 -494701.901819395 562846.602160921 280131.631152535
 -340281.607181697 713681.984885758 121928.061837158
 -240088.261214753 761792.035069251 45061.3152485200
 -177122.910624269 780024.607051266 13750.8882078709
 -135060.395516061 788512.573121313 2571.30174292939
 -105654.392389408 792991.957280041 -951.345360304573
 -83771.6722485815 795600.340847718 -1550.66813730746
 -67419.9795915599 797152.632301591 -1492.36943065588
 -54887.5266610132 798113.993299583 -1188.74573837024
 -46497.3232071062 798646.875868378 -1080.09270579585
 -123154.213211101 -790460.989052364 -2112.94929261517
 -145659.905691462 -786624.523734414 -2247.33921799028
 -178682.417742421 -779786.421078362 -2393.96982502419
 -222016.209147225 -768573.737052216 -1792.64873498012
 -278258.295911350 -750047.247820029 1202.82754849047
 -352784.252064937 -717934.998273357 10611.7740844278
 -452674.886126764 -658736.828630946 33929.8994305073
 -582973.068189404 -541734.137823858 81648.7947374205
 -722537.511225557 -308148.922897083 151604.044106174
 -774961.099174393 74175.3875211196 184209.952642378
 -677833.109165109 405896.512423002 125659.449793496
 -538681.517824605 588267.624607923 61346.7537228448
 -421756.600377574 679385.195629895 23603.5166210740
 -333455.356838395 727162.016168989 6551.88803543550
 -267392.326448157 753990.280645057 21.1998105395506
 -216401.646039626 770173.562930830 -1735.09474401779
 -176490.340200103 780286.620908673 -1987.22091809921
 -144369.814899094 786863.866022024 -1616.44513521718
 -119213.313795216 791066.562948105 -1370.69304928311
 -101534.100324908 793529.710149755 -1193.97690849444
 -185172.031557515 -778271.414200380 -2219.13663456117
 -217034.974555250 -769993.543330514 -2400.63514937676
 -262474.723057958 -755711.453488747 -2686.78647716408
 -319102.057829217 -733598.207945150 -2746.99632772947
 -388021.070901012 -699597.831426794 -1588.33238306020
 -470809.132666251 -646786.415910204 2468.35817581305
 -568329.070681402 -562892.020094312 12435.4787829352
 -674637.815196823 -428859.929031237 30707.9725442914
 -766476.754318421 -222776.949523041 53701.1717815038
 -796138.637645656 47000.6517033607 62882.4966678232
 -741155.926426587 297644.084510756 45780.9095420974
 -643502.568323012 474722.250964662 23307.2735585035
 -542459.050528063 587936.496011624 8297.90080483365
 -453300.109422326 659180.059303731 812.535560548911
 -377810.461277503 705163.745934180 -1829.41776387317
 -314846.404560545 735435.677002383 -2471.13887596158
 -261733.715449169 755970.177955043 -2133.59785226493
 -217461.112784701 769874.952133155 -1795.13353601245
 -181137.183352651 779222.254041530 -1414.07690872008
 -155289.138962112 784782.516670835 -1298.01702514373
 -244563.496925281 -761697.812980660 -2266.64336794678
 -283920.902650602 -747919.144583868 -2423.67551517393
 -338040.664800152 -725065.923347691 -2813.49274600026
 -402410.616677143 -691415.773192722 -3150.26440667882
 -475377.658083023 -643433.287466147 -3112.35859219248
 -555859.308064818 -575340.869004341 -1820.46450969423
 -640378.058129987 -479492.931916808 1571.91204890524
 -721017.094040542 -346517.438704821 7746.92034185609
 -781183.324543838 -171861.742005431 14702.2137617157
 -799163.866301843 32197.2111780420 17333.6202175536
 -766836.047860362 227613.387050432 12434.6989240544
 -700623.242552463 386131.119781370 5461.71508387390
 -621596.687715500 503604.494670198 266.024612592795
 -542070.284591436 588349.604577599 -2132.92201937439
 -467850.769397039 648927.653970701 -2925.31821855188
 -400116.066651949 692748.211721070 -2654.87555864906
 -339697.211558131 724293.171059674 -2281.84485734357
 -286256.228755740 747030.309969670 -1757.12411652867
 -241177.083792752 762778.724693527 -1493.78985798053
 -208049.762961934 772472.338029228 -1335.33184681458
 -302139.588484938 -740747.313338386 -2255.40508913810
 -347023.533046169 -720811.298083944 -2395.84362857582
 -406660.370895861 -688926.636320790 -2726.26311325919
 -473820.298708312 -644580.534815518 -3202.91568844432
 -545289.375296184 -585360.702838499 -3513.51128014805
 -617798.936360781 -508244.340891287 -3487.71894909869
 -687403.998303741 -409229.713168005 -2604.79873701869
 -747251.268913267 -285682.759241935 -949.831262721693
 -787967.164234612 -138226.789608017 1050.10605342295
 -799666.957392771 23020.0699471282 1683.34007769829
 -779432.837967378 180233.704822513 512.585671301104
 -734263.356937851 317576.946831966 -1485.09233540989
 -674365.991971989 430375.395582013 -2743.67440872576
 -608234.779458384 519653.209202981 -3315.90443972965
 -540426.528268098 589855.707646141 -3067.84963137419
 -474124.517271834 644359.039787277 -2714.76816128450
 -410551.900337514 686616.769591750 -2132.80206448699
 -351749.221471904 718518.831028739 -1781.75503463509
 -299718.263626356 741732.330720036 -1453.27678876828
 -260615.038694020 756358.321653460 -1375.08984305848
 -358940.967535229 -714952.027119533 -2231.75772529017
 -407596.603924028 -688374.697780978 -2298.67886997928
 -469578.531639229 -647679.933330173 -2589.70750605956
 -535877.788814356 -593991.788263149 -2958.19731974961
 -601802.426952924 -527088.473053097 -3403.01162564975
 -664216.536564570 -445873.425014541 -3644.36825369332
 -719498.431966715 -349725.919479559 -3713.17136911806
 -763710.448402590 -238191.261616942 -3357.66139493713
 -791830.619569666 -113996.932432455 -2994.88028290707
 -799810.157691289 17210.8166850250 -2738.51106826950
 -786634.378812981 145591.976914754 -3054.55849027066
 -755293.382974645 263668.247465086 -3310.72702073564
 -710919.546719237 366852.758668204 -3528.67539487990
 -657793.516628288 455298.879969622 -3258.73905024390
 -599539.555180300 529663.592616986 -2966.55191663899
 -538058.166622922 592019.900870453 -2417.91309155073
 -475702.877222823 643197.118107314 -2059.09212354078
 -414334.362722218 684342.255254906 -1647.28267211545
 -357856.143467762 715497.603931054 -1469.47313741989
 -313804.558019068 735883.692473073 -1374.96132815434
 -416042.026320501 -683303.868193702 -2203.64394910858
 -466486.334616111 -649911.960005686 -2223.47880463383
 -528032.602917050 -600979.128536273 -2378.51222981750
 -590086.159227601 -540176.923766195 -2686.20894739205
 -648190.908789697 -468870.630956694 -2979.46113543954
 -699563.299847782 -388072.371103967 -3320.28490145572
 -742430.738380177 -297967.342489323 -3472.96963947426
 -774661.648100483 -199715.696794055 -3601.58524948008
 -794363.387757068 -94733.9908692722 -3504.16396491017
 -799887.257073757 12957.7305133237 -3531.74050082397
 -791048.504949586 119291.737582370 -3426.97557670746
 -769282.423639390 219528.326960859 -3444.75561859911
 -736686.153779237 311902.917851298 -3175.00642548964
 -695615.455723442 395108.016900188 -2965.25544760433
 -647422.948688226 469933.191683473 -2514.13325561523
 -593670.337959217 536237.456671729 -2218.08242051828
 -535342.199336008 594479.128506220 -1815.31831180680
 -474881.505090536 643805.067654480 -1609.65380076908
 -416074.662442013 683286.087576732 -1413.43477001362
 -368579.290815425 710033.341019914 -1400.36498665480
 -473929.900279250 -644504.114023700 -2212.83253475494
 -524066.595627027 -604441.559223361 -2145.88711978510
 -582130.919736224 -548742.784759875 -2224.51366251371
 -637432.490917066 -483398.641523540 -2360.69829962543
 -686078.710011206 -411447.762167464 -2596.66646792191
 -726855.616381170 -334175.447094034 -2771.91173263041
 -759055.531392259 -252637.543758273 -2995.28739879629
 -782343.002703270 -167122.942745291 -3057.47107674057
 -796074.154728858 -79094.5139172136 -3161.96788932984
 -799929.093842081 10196.6188714540 -3077.95201009108
 -793962.361397296 98052.4529461896 -3079.79799094160
 -778762.280095050 183087.633767732 -2868.70397422249
 -755326.106574311 263580.998770351 -2744.05074967639
 -724271.180224317 339743.191486363 -2412.74431604102
 -686247.617845100 411168.246190298 -2209.14615195758
 -641209.879752456 478378.895273157 -1876.87641451044
 -589761.010950954 540535.889922781 -1703.42816009722
 -532937.802539668 596636.477244570 -1487.49634577021
 -474712.573829265 643930.066266681 -1428.98781754569
 -425340.889717001 677556.715363650 -1423.02507800396
 -531980.927979355 -597487.366705224 -2266.91285294553
 -579301.957361149 -551728.813212585 -2135.15071462579
 -631137.536481760 -491590.346979283 -2083.45878858877
 -677640.580404392 -425204.238729620 -2144.56418981674
 -716532.700080023 -355775.164385593 -2218.58568342107
 -747567.655463611 -284845.570917159 -2366.69252689240
 -771221.021976964 -212631.527710245 -2443.08911306764
 -787723.254223357 -139590.398576373 -2568.14739735975
 -797292.981087200 -65706.6411992454 -2557.26639219912
 -799955.940951631 7984.03710619736 -2597.63116643962
 -795880.550547120 81043.3777081704 -2473.90187047075
 -785369.864796604 152277.133743393 -2418.67903220724
 -768641.420698658 221778.104110657 -2199.75531181142
 -745900.392999563 289185.567642685 -2076.34059730848
 -716793.809598994 355251.006626990 -1832.16021971095
 -680974.098828336 419846.823370861 -1709.27772241310
 -637745.399138120 482989.104310066 -1526.75994217134
 -587454.968149537 543041.894906312 -1469.95679812864
 -532604.630008217 596934.060714784 -1426.62271402116
 -483554.700319180 637316.729507854 -1496.02427854025
 -587305.550723440 -543200.178028151 -2399.30815494540
 -629311.431745354 -493925.482155521 -2177.14309363756
 -672689.851837991 -432994.421421338 -2047.98734915673
 -709833.341145630 -368961.605382751 -1990.36464365953
 -739641.300173509 -304838.757538326 -2019.64851666029
 -762712.625513253 -241381.965126007 -2048.85201696714
 -779770.144219106 -178756.784382192 -2129.37123413628
 -791462.237469657 -116545.757158304 -2147.82399691208
 -798115.673889153 -54831.8860670803 -2198.94583572142
 -799970.117713371 6572.32144874334 -2148.33806209205
 -797169.833287416 67199.0337654879 -2132.31271133515
 -789820.522137684 127198.756460829 -2004.78551803860
 -777987.506325556 186364.473357786 -1929.52621580773
 -761444.204338112 245356.092196090 -1764.00174686001
 -739792.076307071 304474.760187977 -1674.58703757465
 -712136.677934089 364498.273664441 -1536.37125773316
 -677566.604346993 425324.908533378 -1489.58207543043
 -635319.969365575 486175.323137406 -1446.27022537014
 -586726.096788454 543829.223655340 -1504.27584396587
 -540364.545266103 589918.274147150 -1608.74068949902
 -632237.490138170 -490172.431975318 -2596.72778538405
 -667089.658443981 -441572.277397057 -2304.65430595769
 -702150.055062621 -383380.891962226 -2095.67502440725
 -731557.718802085 -323758.137673701 -1993.07579996683
 -754712.267022314 -265340.492687677 -1953.70066841098
 -772278.327813013 -208763.763832860 -1968.57833861818
 -785084.053182996 -153750.067491503 -1986.50046999067
 -793731.357922130 -99932.2254035195 -2020.34081077463
 -798622.989084672 -46874.8748232155 -2016.78352175593
 -799978.321867157 5535.38203086981 -2010.99188946647
 -797928.746296529 57497.0419591556 -1950.89712612876
 -792531.636845484 109041.398651442 -1891.55469291485
 -783720.038720169 160560.612592549 -1786.22293189700
 -771269.204939325 212463.928550368 -1700.75783254852
 -754642.890448643 265540.129548950 -1596.08722965919
 -733026.362163343 320421.588883195 -1535.49703472772
 -705286.682766976 377582.400203989 -1492.03476846052
 -670476.076338093 436416.683663512 -1519.63101380558
 -629067.737653834 494237.990330063 -1609.45878749017
 -587687.733337363 542789.075380655 -1774.18494178519
# End: Data Text
# End: Segment
