# OOMMF OVF 2.0
#
# Segment count: 1
#
# Begin: Segment
# Begin: Header
#
# Title: Oxs_TimeDriver::Magnetization
# Desc: Oxs vector field output
# Desc:  MIF source file: C:/Users/Victor H. González/Documents/GitHub/Intro-to-magnetism-in-python/vortex_dynamics/drive-2/vortex_dynamics.mif
# Desc:  Iteration: 1370, State id: 8651
# Desc:  Stage: 195, Stage iteration: 6
# Desc:  Stage simulation time: 1e-11 s
# Desc:  Total simulation time: 1.96e-09 s
# meshunit: m
# meshtype: rectangular
# xbase: -4.7499999999999995e-08
# ybase: -4.7499999999999995e-08
# zbase: 2.5000000000000001e-09
# xnodes: 20
# ynodes: 20
# znodes: 1
# xstepsize: 5.0000000000000001e-09
# ystepsize: 5.0000000000000001e-09
# zstepsize: 5.0000000000000001e-09
# xmin: -4.9999999999999998e-08
# ymin: -4.9999999999999998e-08
# zmin: 0
# xmax: 4.9999999999999998e-08
# ymax: 4.9999999999999998e-08
# zmax: 5.0000000000000001e-09
# valuedim: 3
# valuelabels: Magnetization_x Magnetization_y Magnetization_z
# valueunits: A/m A/m A/m
#
# End: Header
#
# Begin: Data Text
 527224.507524560 -601689.539983506 -2004.03091848952
 576599.568120907 -554553.484035759 -1836.13359687560
 626700.628771471 -497235.727807629 -1718.39723614622
 669622.348268047 -437724.943797653 -1668.61539244016
 704636.077478511 -378794.518433152 -1646.54811495732
 732749.184997286 -321054.333342001 -1657.38593442547
 755198.503621239 -263955.487163906 -1649.52244826088
 772847.122744198 -206651.029602487 -1636.10215018719
 786145.100172718 -148234.392998527 -1564.03541683916
 795116.661639974 -88246.0534531753 -1458.91481642897
 799556.795671320 -26594.5784730348 -1287.97967833550
 799176.918435420 36263.7123771938 -1093.71142848952
 793753.497363359 99772.9925683097 -857.541485837526
 783129.906992317 163423.296385731 -612.350085228493
 767076.443426147 227142.277856287 -339.927860773872
 745157.223694358 291102.572493650 -65.2969851751424
 716675.743021904 355493.783862909 221.356799604393
 681064.096511078 419703.997620293 500.824415901081
 639191.341829095 481075.703859061 771.807767449695
 597966.558069920 531446.146805924 994.220876237363
 478117.089411591 -641405.293110007 -1816.25522812965
 529105.627328547 -600036.953257188 -1699.95738113274
 584385.042040745 -546343.634645787 -1659.97622496297
 634033.548468464 -487851.146471174 -1648.72776673606
 676102.492227563 -427647.642365212 -1707.03929479253
 711081.392509965 -366551.826940008 -1735.33657583755
 739798.337204968 -304458.833609433 -1799.69607077508
 763008.352082496 -240447.711934268 -1775.52187511384
 780875.046803470 -173871.012480021 -1741.34972095263
 793188.773916217 -104158.787864534 -1586.14119145577
 799368.402737077 -31751.2448698349 -1419.56147839609
 798869.498759380 42498.7026201499 -1176.53199731238
 791385.087877005 117084.263657878 -958.065549657043
 776873.197562252 190964.807476579 -690.807379578573
 755379.975497037 263440.508909135 -436.902497331589
 726714.590458484 334493.471991942 -145.634932718857
 690518.213333450 403961.113492324 125.860319547323
 646612.478351069 471054.287409778 401.439352842468
 596684.634869819 532885.576389091 639.520708875588
 549645.072629274 581282.725397518 829.028825263478
 419321.164506802 -681297.928507247 -1701.06096138469
 469574.457843190 -647685.942940875 -1657.66645140803
 527938.956304871 -601063.789897367 -1667.00028127519
 583719.822716107 -547053.921558167 -1781.98656236451
 633827.154003276 -488118.458049381 -1873.43524084563
 677506.487950328 -425418.389564587 -2037.79426967036
 715095.241881296 -358656.405304494 -2092.36057830727
 746625.495488903 -287307.780526252 -2146.79645706963
 771868.155689051 -210274.925964293 -2001.43545855763
 789774.623438505 -127486.355514592 -1809.23469282017
 799020.700882102 -39544.2025392031 -1474.99403820060
 798366.409295472 51084.0202984207 -1224.49124382061
 787373.831106850 141568.043509236 -969.094984137411
 766488.354415604 229117.843597746 -785.041640736122
 736470.111925656 312428.378847153 -531.348428217738
 698028.750685741 390839.842082585 -284.705045931718
 651589.709258883 464145.290566491 5.73343944792472
 598120.608152123 531273.632698602 255.544447964891
 540726.050219417 589588.927415101 485.060429422539
 490078.378230035 632315.406303387 640.423923575393
 359010.265954557 -714918.744077261 -1678.78117425991
 406516.077190983 -689015.172878647 -1664.49039192349
 464623.518920782 -651246.310057838 -1797.02579853584
 523860.946119968 -604620.468765056 -1948.81518252135
 580327.061505075 -550650.139195112 -2219.43445284099
 632746.679197965 -489516.030358729 -2386.62644332791
 680287.353250454 -420954.304402712 -2567.21879112391
 722502.415448551 -343488.308814912 -2457.92157743540
 757913.937054181 -256050.229023889 -2178.12668252847
 784289.413064113 -157758.461473552 -1544.14670562803
 798408.147549210 -50433.5487476818 -941.853362173993
 797616.664160119 61704.1761135138 -501.701343438588
 781289.314308771 172008.117004378 -463.714931724302
 751080.690677220 275458.809414863 -490.313753138608
 709682.439479786 369256.796900233 -503.027833375724
 659416.249781003 452957.054111458 -341.548573302772
 602321.494351437 526506.218890796 -137.519339815756
 540602.538738318 589702.366978875 116.143007782115
 478622.531912234 641030.711720114 313.970584884885
 427081.758850200 676462.089630694 461.031338403521
 299894.681225688 -741660.486900075 -1703.62662773305
 342825.028241900 -722819.401312687 -1764.39703869178
 397732.380166814 -694121.945800528 -1917.84382357854
 456677.452503656 -656841.410777715 -2250.65819556083
 516663.605468423 -610780.093882627 -2528.97234051401
 575786.686521012 -555393.084572245 -2865.87412153794
 633295.060067952 -488803.824026981 -2861.55729114516
 687639.524386899 -408834.387855059 -2515.51349387823
 736558.339972123 -312217.788167544 -1365.49232019996
 775290.794132028 -197291.880232710 313.892291912163
 797314.897425014 -65457.2505489190 2074.29378728576
 796507.740751556 74620.7781120189 2675.51804482754
 771958.998647778 209940.676884177 2053.43520294786
 728562.374682378 330448.172146845 933.660529842220
 672719.220446657 432953.603941950 165.152414080867
 609706.821655847 517935.860726180 -189.209289113415
 543073.795768203 587427.294246110 -162.248610630804
 476081.444160457 642920.257944902 -21.2168735818379
 412998.914078256 685150.981864141 170.354879251983
 363284.690390632 712758.126467213 294.758768279226
 242463.046433165 -762370.312681858 -1782.54192511478
 279507.192156979 -749581.430167948 -1846.36938210695
 328336.522126385 -729513.907253599 -2141.81267544192
 383544.220634135 -702059.636960811 -2469.20404351970
 442724.759207517 -666322.862468383 -2937.77749092246
 505331.844135804 -620185.513212329 -3107.49157163727
 570468.725362561 -560854.023065598 -2863.24891522845
 637440.443239204 -483392.110352786 -1322.48693263487
 702936.245070501 -381938.346460372 1932.58099473803
 759887.113331043 -250041.252860890 7137.70699676485
 795110.061402314 -87479.0041719380 12141.4202585323
 794620.047095609 91655.7807609501 13349.1050963520
 756931.303798185 258758.768236877 9944.90778808557
 694680.390291683 396722.342085525 5526.17719312523
 621622.080051446 503568.082459886 2275.06487521877
 546243.686295883 584480.478219759 636.994415833139
 473120.564335801 645102.264313312 13.4316613675674
 404813.803537089 690018.682699162 -44.6312370829542
 344492.520379473 722028.324353201 47.2684602396215
 299081.490193171 741990.724393838 164.734149976964
 186431.150850881 -777971.707620619 -1856.91525795404
 216307.250667317 -770199.442444129 -1998.04091534815
 256978.648282204 -757599.375053522 -2271.83748590670
 304505.783432692 -739775.991257372 -2776.79945535820
 358523.063230234 -715158.384180557 -3114.26849591196
 418994.462314449 -681493.653475086 -3168.72577002553
 487361.956643002 -634409.227955798 -1804.07916486299
 564088.559768833 -567273.361900063 2242.68065601756
 648215.876943865 -468708.846987615 11322.2627348261
 731060.690869357 -323837.350804074 26069.8386994904
 789614.185164653 -121583.089104254 41557.0815942155
 790245.285659343 116509.285104528 44022.4372066669
 729984.409207923 325787.015221994 31393.9966570689
 641227.610864627 478056.259190039 17010.7058662531
 549379.178634751 581486.532712629 7478.66007050829
 464991.232470990 650981.058171465 2610.67559650406
 390488.168397695 698225.281788077 667.992047275630
 326188.121919611 730480.188462742 58.1549225324235
 272590.777720360 752126.497214107 9.49987880802155
 233936.696891862 765031.775136415 69.8494941573613
 131146.167378471 -789174.801437140 -1953.34548606873
 153051.391854409 -785220.338670490 -2071.51867708651
 183264.296518556 -778722.059623085 -2480.21731703193
 220062.488756704 -769132.092258086 -2885.42906774959
 263319.893271031 -755415.099468901 -3265.16494585100
 315143.479810337 -735307.982580887 -2599.59340264622
 377959.949580154 -705085.805992082 531.697155018556
 456570.231520567 -656842.925731287 10049.6072569930
 554994.564155340 -575299.598030576 31802.6141045504
 670704.445108090 -430139.813402987 71660.9254607595
 770391.100475117 -179672.339493308 119228.363780352
 773952.241722942 158894.581100093 125500.755491992
 673983.877116235 423036.775236034 82374.8759347494
 551376.455702619 578157.653382243 41445.5297029261
 445170.718808728 664467.579944188 17489.0342338777
 360286.592780798 714250.369262311 6323.05867874666
 292997.916284241 744411.720243436 1847.11052763993
 239115.809756416 763428.764141166 389.366697681216
 196683.151916109 775445.508738371 27.0154285999812
 167100.753684428 782353.716229712 28.6296136706146
 76220.4298844682 -796358.223973306 -2006.28470229504
 89213.2240972452 -795007.033021296 -2195.01545572256
 107651.061709336 -792719.915874961 -2526.63571753523
 130257.318833082 -789318.494031770 -3057.10154161110
 158192.217055606 -784197.445906347 -3096.49753662115
 192787.004668525 -776421.244576822 -1794.93752470098
 238290.947436430 -763675.106374897 4213.81930543223
 301017.556430411 -740884.213467355 21886.3646027234
 393285.864427748 -693451.425115259 66718.4370840241
 528790.949353450 -578057.600755830 161955.370674423
 684251.404504229 -283642.839294648 302236.257174515
 693651.835200069 238076.222218863 319635.486042413
 538351.023554168 562303.877039228 184370.619418692
 394093.050460034 691289.482499858 82519.8095258653
 294782.807173133 743005.598173068 32338.4860283909
 227405.851551336 766915.299831339 11291.6590818095
 179323.122407870 779635.460666605 3430.19548465748
 143551.446523802 787014.831445620 798.301664065075
 116534.910942531 791466.740148684 117.345776064068
 98281.3351176313 793940.034905252 11.9224048383661
 21319.5763550297 -799713.216139134 -2060.96978225411
 25099.1665972508 -799603.145142269 -2200.48056456291
 30295.0917840286 -799421.791391054 -2647.04796250940
 37078.3230147648 -799134.598528410 -3015.19439690982
 45217.1150094254 -798715.202083641 -3072.20941883236
 56056.7008774162 -798033.007436987 -982.510976893426
 70569.7768478100 -796849.757128797 7097.26422136886
 92807.7565171215 -793935.007285139 32464.2039391948
 130342.755930608 -782673.687778967 102140.415286447
 200785.756979142 -723824.922448942 275249.998067384
 314053.067633939 -428324.748812691 598254.611569571
 323974.722804125 353853.844807140 640177.971738480
 208889.389186808 705144.434387812 314859.571455364
 132563.149726800 779043.983547626 124569.189741109
 91669.7634159440 793440.951544932 45256.0591163026
 67795.9701431795 796976.644764074 15229.3838662165
 52303.6041004202 798275.421961267 4547.93257074909
 41246.0157242722 798935.240810346 1116.77132239441
 33226.4479042892 799309.688565406 157.876971555172
 27856.1620888558 799514.874271851 7.19334141949119
 -33476.2145113155 -799296.644199976 -2053.68757347251
 -39259.9314588132 -799032.909543128 -2251.05506207328
 -47240.8319736822 -798599.778397415 -2587.99884747513
 -57473.1703729649 -797926.795706972 -3108.59776821300
 -69828.9854707534 -796940.900005238 -3019.05398514246
 -85986.4684513034 -795364.633411285 -1194.63877632237
 -107507.630364586 -792714.958931141 6715.89906047814
 -139685.344136324 -787108.985867759 30780.6595079613
 -192451.921034871 -770495.983155859 96427.1643815937
 -287131.108919739 -701709.949970476 255262.359941596
 -430880.169525426 -402581.132354298 540620.672359160
 -441676.730089038 334497.951341839 577089.929426920
 -295449.530617233 683940.167725502 291436.823050329
 -193435.711693292 767306.075750532 117575.556805090
 -136441.182711718 787093.488338818 43216.2501249119
 -102201.793659715 793311.120453211 14569.1296242385
 -79519.7593820940 796026.121789688 4361.34111063792
 -63146.0219938442 797503.322575090 1015.08031457110
 -51124.4315728822 798364.751084638 129.313236576329
 -43018.4675769342 798842.544297346 -29.4597032483818
 -88230.2555388796 -795117.121002067 -2045.94646242753
 -103112.946710978 -793324.012884771 -2175.04045521560
 -124139.238552809 -790305.399721301 -2612.39791828603
 -149808.288380445 -785842.499336621 -3007.15295506464
 -181324.582274753 -779173.128254099 -3260.68545061996
 -220007.411180103 -769150.736336509 -1970.74068173925
 -270196.748830452 -752982.801088662 3258.55583463204
 -337901.813480790 -724883.289148212 19146.3197524646
 -434309.294539201 -669313.317575862 58267.6547704961
 -569156.371554984 -544738.793556856 138998.818385579
 -714290.557360981 -257028.176429752 252439.133626575
 -721761.418554968 219244.557876165 266443.762410013
 -576381.973686929 531788.361516112 158066.311922465
 -433092.814630186 668714.880193433 72463.9422305095
 -329562.731104032 728397.506187822 28731.1546341700
 -256986.525672890 757533.367962925 10055.9457697895
 -204054.063657643 773533.000536229 2938.73888302038
 -164135.303663188 782980.982884000 618.492843729531
 -133697.923254392 788748.924071290 -9.68732494557548
 -113003.178611809 791978.709354039 -74.5220651454270
 -142892.402456921 -787132.662264873 -1983.25890953262
 -166502.649041423 -782478.269994441 -2150.54613880815
 -198913.274825576 -774872.560017626 -2454.55289123933
 -238184.821755640 -763713.938903961 -3001.70102281390
 -283966.048542812 -747898.819590262 -3261.73733971604
 -338262.410305356 -724962.065484599 -2923.24865768050
 -403028.285603079 -691063.080651642 -139.871742510463
 -482397.479628582 -638147.065289411 7809.91104329519
 -578763.713300166 -551677.232363710 26168.5968007603
 -687647.669426662 -404590.981923423 58709.6250909610
 -776996.149726081 -164224.286630930 96474.6961198050
 -779404.978688443 149094.845760025 101482.048478844
 -689002.623863559 400846.214642899 67806.3161924475
 -573390.131591152 556802.779261570 34560.4108840131
 -469277.927340818 647737.437327414 14643.7425277858
 -383493.694947614 702072.823532192 5131.89954698466
 -314040.380917694 735783.080806334 1377.37148543478
 -257549.934387458 757408.751428587 120.649929731394
 -212618.052958900 771228.596703319 -123.219302179376
 -181057.461815098 779242.055798869 -118.302267159011
 -197866.278956289 -775142.043260302 -1936.08425352994
 -229172.696590319 -766469.692624230 -2021.24368610100
 -271604.106133902 -752479.595931183 -2380.59623793181
 -320829.879015727 -732844.182081263 -2755.63430052276
 -376341.756358759 -705943.516643037 -3260.94012007902
 -437722.181734774 -669618.355744234 -3247.96362939176
 -506144.638198196 -619525.739963487 -2337.25178541937
 -581376.902427091 -549545.007868548 1087.03773561795
 -661907.315951174 -449231.425669041 8356.51133381658
 -738798.818476157 -306209.653807837 20296.6433953676
 -791387.560213462 -112492.087650993 32423.1361115116
 -791461.672218633 111338.260859083 34528.4386811798
 -736606.017756175 311125.896544900 24743.7083825792
 -653758.651906351 460889.714525714 13427.4384003872
 -565514.988169605 565827.126330315 5697.47876772376
 -482480.536936264 638129.479177342 1816.39272985849
 -407696.843106178 688319.136950652 223.223578941224
 -342240.394531339 723098.527251722 -179.547832389733
 -287060.965537068 746723.483454200 -203.280470765616
 -246982.138054034 760920.370648411 -114.081302427140
 -253583.799174214 -758743.553748878 -1864.52162659694
 -291770.752202357 -744893.265795858 -1962.32801867140
 -341804.331978202 -723301.534025886 -2165.52920411190
 -398008.088989236 -693961.685571823 -2596.16206172051
 -457660.086847801 -656154.456420578 -2928.17791085465
 -520117.999883247 -607837.565962276 -3280.18330380319
 -584136.973277815 -546603.045224033 -3017.84718768721
 -648933.927768151 -467847.088679338 -1964.43520293152
 -711006.778577331 -366699.912014668 731.673097570928
 -763855.339890919 -237702.688415105 4738.31619463171
 -795765.444465140 -81733.3886691455 8775.56675426528
 -795012.138488293 88664.7737750528 9708.63263751854
 -760303.415733388 248769.411128255 7245.42000458929
 -702094.622100231 383469.340609089 3795.58042530977
 -632457.857755256 489893.059297982 1359.63792805867
 -559177.269763754 572119.546967529 70.4075440724531
 -486957.838707377 634721.963214438 -304.523644279834
 -418538.978240118 681780.769540965 -325.542388278856
 -357512.891825242 715670.665462019 -175.430628421821
 -311198.438579136 736990.859004267 -74.6328434274286
 -310760.141782459 -737173.493795259 -1836.93359586321
 -354466.874627728 -717181.856046696 -1849.36450388940
 -410052.154412952 -686915.565058427 -2058.43186864271
 -469234.011239408 -647930.743176824 -2279.19777622446
 -528965.686670042 -600156.827325422 -2661.75513036259
 -587160.007967029 -543355.219688953 -2868.84661993155
 -643136.438944941 -475779.629244601 -3043.89505264956
 -695244.226623763 -395762.850729685 -2689.11298373827
 -741489.898870191 -300314.862765060 -1926.93432047175
 -777483.549338096 -188465.050721909 -505.138619203657
 -797633.163955379 -61487.5340979206 786.707752845503
 -796695.990116664 72619.1721525976 1398.27318510523
 -773846.243999067 202882.116973122 915.019694518134
 -733157.649401521 320124.697012395 198.712757468167
 -680028.503472422 421379.977045181 -386.536492970358
 -619244.630599292 506493.637667614 -531.484875491974
 -554038.992437270 577096.662516230 -486.797416443698
 -487734.603160967 634125.286079824 -280.059986367307
 -424642.553464988 677996.083025999 -114.839622796343
 -374552.758241060 706901.853985081 11.2457934715639
 -369682.166200615 -709458.769467557 -1830.41492588805
 -417572.684741892 -682370.654795271 -1828.23185666039
 -475738.455383348 -643171.328729182 -1887.84803520454
 -534608.386225424 -595138.194675486 -2098.24113285444
 -590201.959569328 -540052.377539185 -2253.09449405157
 -641370.140610445 -478161.077724063 -2515.25010705198
 -687249.200332918 -409489.766853097 -2582.14723829155
 -727580.790020824 -332594.773125759 -2628.85566317729
 -760975.552674423 -246801.201382983 -2318.45374597243
 -785585.225054255 -151169.270905219 -1925.02219215881
 -798579.094336824 -47640.5233522784 -1345.59388300710
 -797721.037480866 60332.7676512440 -1050.47988656568
 -782431.022754360 166736.036799496 -888.067543737073
 -753990.879900218 267389.078888701 -912.972259327333
 -714677.827617607 359492.647918203 -799.252487334219
 -666375.138161836 442655.323550992 -663.152894639718
 -610945.952169449 516473.500177749 -408.829928730123
 -550375.950907084 580591.312891093 -200.146246646155
 -489016.860081634 633137.039314189 2.08863174275671
 -437583.538458514 669716.831544162 111.429691481707
 -429868.290224581 -674692.248032043 -1903.55059438542
 -480007.357114827 -639991.902599039 -1817.06447342036
 -537846.534023682 -592214.245185164 -1842.18307399487
 -592694.963926841 -537316.628444777 -1876.30820984677
 -641618.300331302 -477830.399718635 -2016.37910617171
 -683895.968938059 -415068.648134688 -2078.70294076639
 -720007.975355657 -348688.432795577 -2211.84511483019
 -750002.454569218 -278373.088797849 -2177.51539465495
 -773827.126776069 -202945.691547101 -2150.38321305018
 -790558.528880069 -122529.797833257 -1913.38911948160
 -799122.168432182 -37427.5910127714 -1713.28667441951
 -798433.836624342 50013.9230319592 -1419.87192599065
 -788079.748422251 137581.820399324 -1246.12291961010
 -768388.007691593 222663.114121704 -1003.61614671125
 -739873.756716748 304279.751307641 -810.596080679821
 -703091.487150689 381657.007721492 -537.729772110711
 -658253.745681892 454644.817334584 -310.429642045160
 -606228.315401672 522003.089115029 -67.5249422961654
 -549921.297940431 581021.991880766 104.987706287393
 -499881.204618010 624594.852094013 228.051106365626
 -488567.361907216 -633480.642175391 -2051.55260179927
 -538869.599930387 -591283.251368229 -1915.96510446409
 -593043.313760584 -536932.318388362 -1820.29502074616
 -641413.284557711 -478106.373545331 -1814.92926086360
 -682136.428066477 -417955.308924501 -1803.67583914887
 -715806.519493924 -357235.997538937 -1862.44794678291
 -743253.331105598 -295924.050434550 -1855.30990465218
 -765305.054918262 -233033.514875473 -1885.16878236113
 -782149.375362353 -168045.007436880 -1797.24673278627
 -793690.449329447 -100262.243430137 -1718.48351062264
 -799429.707219075 -30163.3339611990 -1522.00524598041
 -798911.277282736 41700.4880216179 -1356.58734524121
 -791845.879454446 113924.777985795 -1117.20718869242
 -778128.964673947 185780.716633337 -916.331083717921
 -757738.715338965 256576.705303732 -658.461796165385
 -730373.901464703 326425.758982873 -433.510880213459
 -695630.068292740 395093.374204326 -183.703233590261
 -653223.287506050 461843.410838508 22.9094346251729
 -604732.120629313 523735.636417346 213.133035861020
 -558767.126912291 572520.029597229 337.034378907088
 -537597.864066984 -592438.461320360 -2281.68774859761
 -585672.100014680 -544962.301358186 -2069.14542361871
 -634280.566563519 -487528.950786703 -1919.64181021813
 -675753.697831211 -428198.098009795 -1824.48026497700
 -709447.433257118 -369704.121205903 -1789.47150274290
 -736372.982012993 -312652.732775881 -1760.69562006751
 -757774.334151810 -256466.316578565 -1756.97507203743
 -774505.975676410 -200343.582915301 -1715.35016585570
 -787049.585019983 -143353.323293743 -1665.95933759046
 -795463.160989826 -85064.4049348096 -1551.29660651542
 -799599.080337669 -25284.3423514910 -1418.71597103854
 -799206.907962600 35592.1930777827 -1230.47014381852
 -794074.408777327 97184.1287690750 -1038.47981864262
 -784028.663551044 159054.696549550 -811.317381609514
 -768799.621392980 221239.225293823 -589.353374656598
 -747929.087709520 283904.837932961 -350.365900093867
 -720696.123158650 347270.905918895 -126.358077127502
 -686527.197696641 410707.192607627 93.6117499052407
 -646228.989817089 471580.334635974 284.085565425080
 -606475.645631328 521715.542561338 428.842621039477
# End: Data Text
# End: Segment
