# OOMMF OVF 2.0
#
# Segment count: 1
#
# Begin: Segment
# Begin: Header
#
# Title: Oxs_TimeDriver::Magnetization
# Desc: Oxs vector field output
# Desc:  MIF source file: C:/Users/Victor H. González/Documents/GitHub/Intro-to-magnetism-in-python/vortex_dynamics/drive-2/vortex_dynamics.mif
# Desc:  Iteration: 159, State id: 1039
# Desc:  Stage: 22, Stage iteration: 6
# Desc:  Stage simulation time: 1e-11 s
# Desc:  Total simulation time: 2.3e-10 s
# meshunit: m
# meshtype: rectangular
# xbase: -4.7499999999999995e-08
# ybase: -4.7499999999999995e-08
# zbase: 2.5000000000000001e-09
# xnodes: 20
# ynodes: 20
# znodes: 1
# xstepsize: 5.0000000000000001e-09
# ystepsize: 5.0000000000000001e-09
# zstepsize: 5.0000000000000001e-09
# xmin: -4.9999999999999998e-08
# ymin: -4.9999999999999998e-08
# zmin: 0
# xmax: 4.9999999999999998e-08
# ymax: 4.9999999999999998e-08
# zmax: 5.0000000000000001e-09
# valuedim: 3
# valuelabels: Magnetization_x Magnetization_y Magnetization_z
# valueunits: A/m A/m A/m
#
# End: Header
#
# Begin: Data Text
 684395.534287319 -414214.537600867 -5391.61271569678
 709523.098280910 -369534.456106347 -4610.72185717344
 735111.749490861 -315586.616691715 -3975.31452379664
 756500.600992079 -260181.297427781 -3540.22138010574
 772988.679196185 -206101.165202485 -3288.09013192564
 785011.680571477 -154099.982375082 -3139.55384476385
 793175.355520513 -104227.150201372 -3091.36795120145
 798022.679652927 -56128.4187565851 -3066.49106417297
 799937.195305027 -9535.42635303688 -3091.79750178582
 799183.997086947 35991.0057286038 -3096.17615368237
 795908.735133740 80743.3932002190 -3128.86438265901
 790121.843530855 125290.350027540 -3130.58546891191
 781691.502570880 170142.252175474 -3163.67399344653
 770244.556220338 216132.313817851 -3185.36288002187
 755174.788493146 264008.341807789 -3261.02441462529
 735529.920659590 314617.832380949 -3369.77186337862
 710161.827883434 368316.949192077 -3578.14967537048
 678002.019323742 424615.220151754 -3895.71667429237
 639408.905846321 480767.168844886 -4379.55309183148
 600504.830529800 528553.906872427 -4971.52293280014
 646079.711214504 -471758.946082313 -4950.10588650059
 679711.266039069 -421869.546510877 -4322.09975299874
 713623.977147296 -361561.036798803 -3799.46173156831
 741861.127672913 -299382.601058662 -3482.15898898588
 763757.883083588 -238040.328586359 -3270.77883315639
 779811.395159803 -178560.576858084 -3210.66520063489
 790803.487135485 -120912.706640770 -3156.28058954513
 797337.183442045 -65139.3336010223 -3206.73022277546
 799920.772140808 -10796.2159037988 -3193.74698625320
 798884.833206280 42099.9102396849 -3258.96161141025
 794439.110834604 94106.6925724758 -3229.48748150873
 786676.157274055 145361.342129797 -3271.66482845945
 775432.723812310 196707.060589995 -3228.49114362553
 760387.446289008 248596.596047672 -3265.57186275813
 740790.462964844 302024.647074412 -3256.15415917881
 715723.814213988 357390.879111200 -3343.84436015437
 683940.435583016 414986.262857464 -3447.05876190999
 644651.041621722 473720.883442956 -3682.27186035805
 598747.444255374 530551.935396175 -4017.69150520770
 554366.539090448 576764.920264471 -4468.45490036135
 597690.682426857 -531737.960720472 -4537.53996701689
 638974.679915304 -481346.874068770 -4067.58544563042
 682466.457639669 -417403.296512089 -3744.63050293306
 719872.297449102 -348957.632932515 -3527.85820142299
 749508.451879438 -279687.200701237 -3485.73165807287
 771700.538483821 -210870.609046249 -3444.58186802522
 787048.383522456 -143325.825663332 -3542.55453227266
 796280.351439191 -76973.9808291833 -3550.80092176458
 799897.094644758 -12294.6307157359 -3671.51664032502
 798363.345478727 51016.6443032222 -3642.88348052104
 792031.919318429 112568.443771293 -3712.71432719763
 781059.941110337 173009.381137618 -3622.48962668224
 765504.513782601 232356.677146354 -3635.10164480788
 744954.389592249 291599.988045296 -3521.98796472598
 718908.340678523 350939.321918794 -3519.94801532069
 686355.893105708 410978.949843326 -3448.30171851776
 646583.307643358 471081.536053198 -3494.66260681093
 599308.618433031 529921.286091500 -3551.11518007933
 546928.355110738 583828.112045905 -3756.32277328213
 499232.396859774 625100.495661266 -4047.74624748422
 546075.039911478 -584623.569678987 -4163.23930096748
 592969.651118728 -537002.762533801 -3876.32341305853
 645090.626818400 -473121.943875704 -3702.62262717471
 692047.274507093 -401318.737445654 -3720.32556768294
 730854.462441710 -325327.015941841 -3753.32218402785
 760736.141541992 -247517.674116085 -3940.04466557222
 781968.608884105 -168845.640818391 -4030.42137798337
 794841.114495794 -90606.5468246615 -4249.27989126070
 799879.818913945 -13187.8608326868 -4284.34602395261
 797569.957712827 62149.6885969679 -4424.78940295394
 788449.300731795 135384.277949209 -4335.60373141244
 773069.042914224 205779.861140612 -4347.83125680372
 751589.552257050 274036.329115342 -4151.53743027920
 724138.369706569 340010.329664873 -4073.97102307608
 690209.872774353 404469.421088395 -3849.53623589813
 649577.541585316 466942.124826631 -3750.93726539470
 601876.158351604 527003.102829817 -3580.44908645952
 548189.925076056 582645.018816527 -3547.97032095125
 491825.346429537 630947.796990946 -3564.55912274045
 443259.341298934 665963.248929497 -3755.98542386824
 494206.152688405 -629083.151759730 -3829.72805418391
 544557.199576882 -586040.967053270 -3666.24116133100
 603318.239411348 -525350.550105379 -3728.47121054109
 659280.867319949 -453137.678853351 -3870.65747048842
 707739.467351013 -372944.118435999 -4186.98909721455
 746790.557199773 -286852.345722406 -4426.67265627114
 775321.984482428 -197111.149529393 -4797.40653196138
 793044.375629321 -105146.753478254 -4977.80229445314
 799869.292454569 -13469.8999283811 -5260.87294520909
 796321.977705868 76442.9472424479 -5271.01882978152
 783334.567122014 162352.428900551 -5352.08201160489
 761884.050596833 243939.233026192 -5132.64422639663
 733041.305653133 320352.061691262 -5000.07765009484
 697191.645030178 392303.863739253 -4635.57929173308
 654915.661671167 459419.335295256 -4398.91517125238
 606248.475745643 521964.174136018 -4023.25422856177
 552203.501813787 578840.997797225 -3793.65967174809
 494319.686715754 628995.658954414 -3536.71340987504
 436853.880593902 670184.020052862 -3473.65453578555
 389386.052778246 698831.835686107 -3545.04349238470
 443059.253755433 -666097.795559873 -3496.34265435153
 494807.393597235 -628612.333539476 -3489.60793873091
 558150.273738341 -573109.739929670 -3673.95203569326
 621690.345334686 -503472.285447942 -4095.40028130268
 679987.762147850 -421421.795665908 -4507.04635881668
 729227.202516067 -328940.918345690 -5055.62542955078
 766885.724062948 -227720.900822212 -5429.32382249674
 790772.303084969 -121013.847557906 -5900.28583414229
 799885.307224421 -12084.3815767263 -6120.70326043313
 794404.531035331 94235.4358103102 -6412.77694735579
 775846.733793471 194991.366723007 -6341.33783182293
 746540.910390343 287467.273426114 -6263.85045434887
 708423.094379822 371621.809879759 -5826.64320252997
 663434.179026702 447018.212310236 -5459.66685116285
 612537.908321188 514561.492069534 -4876.65343019018
 557249.995621902 573979.672345934 -4447.25904846249
 498699.884292470 625526.137524019 -3934.04130115638
 439462.667967418 668475.474924878 -3619.79100465513
 383140.162549852 702276.416400440 -3383.90440594787
 338403.779544802 724893.953470806 -3411.48226715240
 392236.065887955 -697238.000050751 -3168.58043426837
 443698.307320855 -665673.569529630 -3242.05340640701
 509323.817123419 -616908.461096012 -3633.17202727883
 578943.341665511 -552093.758710551 -4133.85220207214
 646493.333876911 -471193.519007640 -4799.67685522512
 707191.387530256 -373968.125917320 -5308.69107395032
 755882.655926286 -261929.565149204 -5857.76156677440
 787979.168920534 -138023.591349756 -6190.11940280612
 799921.240353826 -8991.61385871492 -6720.12730628391
 791276.267640786 117608.610242030 -7076.93898554820
 764889.152108042 234285.196964508 -7418.31994064505
 725046.294927350 338017.180299976 -7228.83352805607
 676183.900343226 427466.667861706 -6897.88256155038
 621218.303739231 504033.421499726 -6174.87737790211
 562829.260813727 568500.284974914 -5536.16792693092
 502445.571311128 622515.746257202 -4753.26536953140
 442219.341862049 666651.743064306 -4184.15492306945
 383876.285761316 701873.046405118 -3636.47632952374
 330887.318872950 728355.843838087 -3368.52430287464
 289912.485777475 745613.737819507 -3302.20610340007
 340608.073431431 -723863.512276359 -2784.94313432078
 390064.059568223 -698456.303892658 -2970.01443845985
 455862.414707508 -657402.443419127 -3389.13611428993
 529341.672205313 -599817.679479960 -4018.14013678968
 605498.725011692 -522829.849883420 -4499.11992456925
 678487.500797798 -423829.375330481 -4834.44600057470
 741144.464168731 -301135.525648246 -4720.00260587681
 784273.968190867 -157772.246774728 -4718.15279586702
 799978.790202122 -2747.25433402839 -5136.90766649146
 786102.104375405 148332.573497076 -6397.58831859099
 748097.865936477 283362.547550646 -7433.00927599706
 694761.784095325 396537.952182421 -7982.22022083383
 633272.382794727 488781.760830445 -7647.18699778210
 568935.923945065 562372.413786841 -7013.03474516262
 504359.939327314 620954.761208392 -6019.64570191188
 441837.571958422 666897.855706266 -5177.84320642936
 382305.310840763 702726.166348744 -4310.96645138291
 327547.778898688 729861.968343919 -3736.26868362141
 279330.496001331 749642.246437987 -3313.05886730561
 243134.615629162 762151.629065455 -3233.10929800845
 286561.822232561 -746911.566637119 -2331.02175805233
 332307.604870023 -727712.379970484 -2519.48074843342
 395528.632319849 -695376.437008015 -2951.58757757514
 470336.369954008 -647126.798909558 -3256.56744990338
 553201.559482793 -577891.063629413 -3154.86339970432
 639453.604818419 -480723.755496444 -1938.60416928038
 719693.834407223 -349343.185102461 351.765117433224
 778969.629271267 -182203.728028463 2849.23946238904
 799960.693281684 7443.36200517009 2735.97630587466
 776845.032903946 191079.465447444 -657.827321496411
 721559.496559268 345440.537593235 -4767.38003856442
 650585.386017845 465496.533180413 -7185.61737272900
 575927.338159496 555197.428681600 -7969.71428952410
 503362.709436793 621748.090028548 -7436.08057408968
 435933.883803257 670759.927352872 -6539.78667682483
 374123.354758153 707108.557182548 -5404.05252753175
 318679.144324888 733773.263800471 -4516.66956526886
 269463.286655665 753243.386697051 -3733.30174043823
 227781.028665556 766879.946653909 -3309.13888469756
 197025.793602363 775352.116022800 -3151.63994235938
 228491.398426600 -766673.788504915 -1727.09715342806
 268292.547110407 -753668.042710328 -1894.87788352851
 325703.525283842 -730693.654874904 -1999.08559899610
 397573.641510532 -694213.760859602 -1566.46392342674
 483837.318173820 -637103.659027675 614.162774029104
 582501.743305938 -548321.325655053 5953.39209440488
 685299.911754247 -412456.309331080 15614.8596729746
 769509.377227229 -217147.378463696 26501.5921353420
 799096.365076698 24550.8922013044 29021.5956372044
 758823.877254026 252698.224563254 18163.9921753248
 676879.365204699 426388.615397769 5203.23161685156
 584722.539215179 545975.233973436 -3255.15305397006
 497740.207587593 626265.959725305 -6755.25277118315
 421195.114028754 680102.509250615 -7433.22469202017
 355008.059995723 716885.595548041 -6657.34435078366
 298527.587258166 742192.386814978 -5633.87963172030
 250041.265408045 759907.056639052 -4542.12101530497
 209058.310225542 772191.907762463 -3778.95644430093
 175125.909887883 780589.816765069 -3233.21026512601
 150735.779261279 785664.838673177 -3079.95505563949
 164997.612867303 -782799.369313606 -967.031702191613
 196265.447155673 -775550.749550054 -953.480536888580
 243225.064333870 -762129.461635543 -501.783720219126
 306010.897127463 -739157.982589255 1675.59357488834
 388107.493607342 -699505.322200281 8054.66444409387
 493994.260547949 -628827.837981141 23349.9620053118
 622056.787821042 -500299.916640663 52396.0507587437
 746129.736053341 -274026.183392154 90554.2257020724
 791478.886793985 53573.9481920416 103397.310576589
 717757.436663789 346605.433915187 68475.8007933573
 597138.491687478 531538.723714952 29869.8332215282
 483622.034835556 637230.808631026 6828.17347210421
 391071.937513447 697890.826523074 -3336.75657173516
 317792.543406394 734143.987362801 -6364.36755234961
 259980.836009159 756549.861872185 -6501.64664963069
 213478.267998940 770971.014257521 -5542.94749223475
 175972.435462551 780392.748584156 -4567.26555441138
 145247.003147508 786695.450413251 -3684.61337993244
 120803.854608421 790820.045870749 -3175.49377800741
 103443.882624522 793278.356038353 -2968.66782439076
 95461.4224504744 -794284.026890671 -38.0797930794267
 115123.457688960 -791673.258288625 203.961784864917
 146207.479270841 -786524.543954251 1585.80037315965
 190667.111973307 -776921.472843834 6251.19555975468
 254979.190300338 -758023.468464249 19647.7421403582
 350123.695541645 -717349.158451061 53137.3944582855
 490231.667631882 -619592.862825626 125608.902496640
 664364.040261008 -374599.814677412 241444.405302172
 737127.599617094 106270.732451529 292146.253282420
 606732.212854209 489355.755236868 180019.350908699
 446955.813082311 658976.579017700 77332.8485060492
 328762.348663228 728918.019108471 24368.8227130273
 247387.029651118 760783.825003847 2762.09574673275
 190629.636305158 776943.216506707 -4424.93913800854
 149483.300673993 785888.869515584 -5781.65989360036
 119064.237834814 791072.249701237 -5329.44851162967
 95753.0607210756 794236.921097028 -4366.29463738319
 77911.9812726109 796188.943141041 -3590.26379657012
 64115.6184139638 797420.862317377 -3025.85796173463
 54699.8048615960 798122.700768294 -2843.56579462852
 20298.3696797918 -799741.866368121 960.919547201309
 25688.7414154111 -799586.107026608 1464.92816393491
 35403.6997971428 -799207.830783017 3663.50321117488
 51512.1829191889 -798266.379843871 10829.6732111985
 78256.0277392165 -795544.167706254 31392.2180013216
 124773.793002626 -785447.943286121 86620.0263642301
 209702.542454206 -739003.661751137 223379.568462855
 353451.601314685 -517146.063507809 497626.279979726
 429727.587858903 188684.289352381 647867.609303441
 292516.709006548 657160.908400248 350105.006280316
 173668.669260460 768984.968997292 136019.523501358
 105497.776456887 791812.201483125 43630.9150156211
 65843.7430087248 797233.402465423 9138.02495105944
 41301.0874791287 798930.400759922 -2105.92370011099
 25912.5697901417 799565.154266305 -4909.46127089086
 16105.5723331413 799823.270278494 -4831.85894202470
 10289.4361147833 799923.191654985 -4124.91902244770
 6837.02659916223 799963.758106399 -3352.72778055789
 5076.19843292750 799978.739511752 -2872.02692496502
 4159.04966249481 799984.727559599 -2671.69932782266
 -58816.1445590057 -797832.613287877 1944.81707416476
 -69149.2690283371 -797001.881142134 2525.87583720406
 -83429.6754558606 -795621.902399723 5027.69083930137
 -101204.830367186 -793470.553282474 12730.4117747091
 -124470.972261351 -789505.737159126 34462.5602232295
 -159882.214664884 -778440.670849543 92020.6466026260
 -223151.352512655 -731750.669650995 233975.279329017
 -332625.858471893 -510544.957369203 518366.554458055
 -386333.134752193 193107.943427846 673391.439786407
 -284372.845663125 653372.932593970 363642.538219900
 -201813.236414993 760871.261796778 142640.599337934
 -159112.688489957 782599.099575155 47135.9916163274
 -135291.934276253 788397.458226938 11204.4804026466
 -118697.737156040 791144.770515002 -894.025055927028
 -104863.246490285 793087.071455744 -4073.89558873740
 -91760.7477774460 794708.229115117 -4335.40586785591
 -79205.7936739069 796060.666129506 -3722.64555577871
 -67111.0266195818 797174.033923459 -3109.62124136772
 -56353.0727698055 798008.359095609 -2643.86136815090
 -48190.1015501608 798543.376554852 -2487.94553033547
 -139560.859157793 -787727.500472998 2855.09889534652
 -164935.564511159 -782805.952301850 3331.75632047979
 -201275.867702567 -774247.456232251 5376.02069069010
 -247786.974316392 -760572.822983848 11427.8737088942
 -308639.019536459 -737564.072564616 27224.8871709472
 -393104.009435442 -693712.675743305 65053.5262598755
 -514430.457090944 -595337.532806263 144687.687276268
 -664270.730334069 -354645.769640454 270131.032829573
 -722702.168077551 113149.208541455 323880.893018483
 -609399.802692721 477330.392416778 201959.344803150
 -477382.185952477 635493.985600547 90849.5613680551
 -383358.406160786 701401.850777049 32737.9924917986
 -318974.055673291 733615.679932339 7974.08080871852
 -271617.922685669 752477.690753038 -1014.39385705167
 -233285.402492279 765222.219692733 -3588.24087000589
 -200146.415822991 774549.652666712 -3774.62409840808
 -170178.617856770 781682.880432452 -3333.53613815639
 -143182.457034996 787077.525844384 -2784.29669812452
 -119675.379993294 790994.255375469 -2427.21784522507
 -102318.947153113 793426.498745155 -2285.63830987110
 -219788.633794193 -769206.629929173 3757.25004303704
 -257861.582771295 -757292.239996778 3983.38691888533
 -310737.192444327 -737166.568477987 5277.07780945132
 -374956.277676663 -706631.219063545 8950.42320949619
 -451775.816300398 -659984.035434202 17879.7309290361
 -544341.493352828 -585088.648943163 36927.1105324737
 -651989.729277275 -458098.066162238 71102.4239767165
 -753553.751274377 -243094.990986273 114287.222810330
 -787213.165682137 61868.6586118658 128326.539960663
 -723965.780959923 328658.790611805 88639.4232419993
 -626577.556232229 495397.760923014 44515.4411245356
 -537436.661345147 592346.592502955 16951.3831978481
 -464356.074091506 651429.297182818 3647.90710197810
 -403802.238982341 690609.183378443 -1645.48661762143
 -351472.318090984 718649.509735719 -3176.75500487511
 -304134.534258146 739926.644573103 -3278.06686456233
 -260422.539888717 756420.357033507 -2888.62998895913
 -220046.451159748 769138.050068521 -2493.84618493916
 -184531.353126546 778423.637205788 -2195.62123305410
 -157967.088439605 784246.103794865 -2108.94582365857
 -297992.910879088 -742413.466073735 4740.30148754629
 -345506.517416778 -721528.410528964 4690.33283229542
 -408354.086138133 -687909.578994174 5229.86255533601
 -479216.946669813 -640548.425083115 6988.07183733526
 -555919.504774812 -575178.737600807 11087.1106637584
 -636812.147155386 -483842.902867305 19139.8688680762
 -716361.310023579 -354702.285803261 31823.9209910349
 -778686.101653174 -177749.146531848 45312.2058543016
 -797775.942694252 35064.5401444060 48208.1246550752
 -764758.954920828 232197.082232308 35046.4815809657
 -702928.873404905 381503.034648304 18612.7238158592
 -634982.226791701 486568.865421112 6950.60151830713
 -570326.598959597 561005.438229505 684.686861710186
 -510530.196782206 615918.056833157 -1966.07232579792
 -454269.639556640 658506.928526338 -2778.42759303944
 -400168.933742931 692717.259747273 -2760.89030475030
 -347383.770768195 720637.373296479 -2508.38896944393
 -296576.303486387 742992.331698560 -2211.61648739454
 -250140.711859414 759885.200297045 -2026.48463730369
 -214677.276967188 770655.409807742 -1976.38255819237
 -372708.233541609 -707851.536040131 5897.08198368331
 -426274.153949185 -676948.711341991 5548.68338649439
 -492817.007666667 -630159.709817884 5489.72464810268
 -561963.781832341 -569351.491275827 5965.50841799799
 -629870.364346294 -493161.910992248 7392.81169380049
 -693901.011733282 -397991.988203958 10186.4243474986
 -749450.286938623 -279501.007955838 14263.7288002471
 -788034.638517876 -136671.077241275 17956.2006479587
 -799529.783378089 20699.1169867322 17990.8878979313
 -781536.255676028 170375.209788683 13166.9644700735
 -743129.108711271 296159.599918729 6972.74422089385
 -695166.836311999 395901.993525983 2163.61136026259
 -644122.124059685 474453.678683409 -629.349362821446
 -592195.798950617 537866.562731997 -1922.60243082377
 -539419.369989518 590780.284663451 -2323.47435626880
 -484982.479492553 636228.374962702 -2334.41161213622
 -428542.849332737 675534.063766099 -2180.59107578011
 -370846.638827136 708850.225954442 -2031.65817784547
 -315331.147141732 735229.584568757 -1930.18577667229
 -271202.713480940 752625.620721494 -1939.90570964840
 -441002.524949702 -667430.998541650 7255.01024699603
 -497490.476553104 -626466.061073533 6595.45767774113
 -562490.481184117 -568830.316423008 6043.98009263090
 -624720.004207552 -499691.656288663 5758.90427165437
 -680880.160675791 -419961.702325959 5863.05190074102
 -729344.594377586 -328655.966114620 6458.99291375615
 -767806.300030828 -224541.708564110 7382.86855366952
 -792541.716284695 -108689.999295897 8006.99703801384
 -799861.587077267 12934.9914176395 7357.14042679991
 -789348.641680892 130006.104382184 5209.09780095667
 -764889.028346649 234388.932869171 2569.52590391647
 -731623.448682293 323615.451073334 411.296522594505
 -693173.216742228 399386.969602752 -969.588965825472
 -651099.862064461 464829.182026010 -1673.66563863055
 -605354.426109549 523012.580126627 -1964.64217267326
 -555173.259130482 576002.217079221 -2024.41751139125
 -499744.764871328 624700.841843907 -2007.03343660511
 -439378.556587656 668537.665603739 -1968.16667286792
 -377219.271555500 705479.788282773 -1972.17941137516
 -324541.427029216 731210.450904281 -2034.36235689783
 -494737.591280936 -628617.426280146 8651.42476498698
 -551368.115790279 -579598.346064267 7678.41972311197
 -611629.654428084 -515619.421132542 6765.97185376622
 -665846.548725214 -443409.091921225 6062.23987605746
 -711930.384235773 -364860.980373945 5620.76529210068
 -749421.254848468 -279889.733958688 5433.19481358904
 -777544.178214802 -188138.723126338 5373.24712433358
 -794835.425712923 -90611.1032745705 5125.81653223212
 -799935.911485352 9152.34473945564 4332.67837150182
 -792975.010830728 105744.836865701 2943.07224717166
 -775958.602499157 194644.278323086 1360.92749259675
 -751578.271163744 274098.709038940 4.20787831077196
 -721890.981668028 344778.956739204 -938.922892224760
 -687743.743559576 408664.025604352 -1502.45515934013
 -648865.003621806 467943.362291863 -1793.53334519352
 -604184.206384781 524364.091014498 -1935.15108739116
 -552413.937222486 578649.135835424 -2004.88385427370
 -492919.368338972 630100.177486228 -2064.61815696675
 -427687.342077728 676076.129530775 -2145.81107659906
 -367055.372706404 710820.102194122 -2266.20477940581
# End: Data Text
# End: Segment
