# OOMMF OVF 2.0
#
# Segment count: 1
#
# Begin: Segment
# Begin: Header
#
# Title: Oxs_TimeDriver::Magnetization
# Desc: Oxs vector field output
# Desc:  MIF source file: C:/Users/Victor H. González/Documents/GitHub/Intro-to-magnetism-in-python/vortex_dynamics/drive-2/vortex_dynamics.mif
# Desc:  Iteration: 2350, State id: 14811
# Desc:  Stage: 335, Stage iteration: 6
# Desc:  Stage simulation time: 1e-11 s
# Desc:  Total simulation time: 3.36e-09 s
# meshunit: m
# meshtype: rectangular
# xbase: -4.7499999999999995e-08
# ybase: -4.7499999999999995e-08
# zbase: 2.5000000000000001e-09
# xnodes: 20
# ynodes: 20
# znodes: 1
# xstepsize: 5.0000000000000001e-09
# ystepsize: 5.0000000000000001e-09
# zstepsize: 5.0000000000000001e-09
# xmin: -4.9999999999999998e-08
# ymin: -4.9999999999999998e-08
# zmin: 0
# xmax: 4.9999999999999998e-08
# ymax: 4.9999999999999998e-08
# zmax: 5.0000000000000001e-09
# valuedim: 3
# valuelabels: Magnetization_x Magnetization_y Magnetization_z
# valueunits: A/m A/m A/m
#
# End: Header
#
# Begin: Data Text
 558945.914491025 -572344.742265698 -980.140094213026
 604969.448688908 -523460.713640447 -920.558565783165
 651584.946100260 -464151.078684490 -913.329921944996
 691381.631307077 -402480.500379584 -941.650340827162
 723603.042080558 -341170.968563767 -1003.84312740269
 749139.859232317 -280692.613778536 -1062.01674040481
 768971.334031095 -220639.581020814 -1123.71054912591
 783778.656367829 -160280.077081188 -1146.60938786474
 793826.505737713 -99187.4509785298 -1152.54354954933
 799131.739312775 -37245.5865743599 -1108.82986541950
 799605.097777171 25111.2919892010 -1053.86118327558
 795214.235551411 87369.3404424772 -958.085085695620
 785997.665038925 149019.927465857 -855.436395821846
 771925.852193895 210071.338253577 -715.233584478169
 752757.898918881 270841.681531328 -573.725120756970
 727860.819834474 331991.651581154 -412.589755053251
 696313.365494232 393887.834271473 -266.546477153154
 657272.670243310 456062.080457179 -125.380620367288
 611510.799890173 515804.751212609 -15.6262233666884
 566335.113271295 565034.986721242 57.0694063161937
 509701.925141263 -616606.097482961 -931.694221847156
 559262.256548611 -572035.759283983 -904.710204404117
 612471.304835808 -514663.050786507 -919.188689457961
 659775.874437018 -452432.097311461 -996.410167228698
 699501.975563835 -388195.619983863 -1070.89104756161
 731955.174087562 -322862.553517739 -1180.95827665585
 757898.098792997 -256103.397913088 -1233.45990235863
 777709.589987301 -187526.350133169 -1289.04907455356
 791444.934207634 -116676.248132285 -1252.69263884973
 798786.821512128 -44024.0124346077 -1224.78884290440
 799450.191003014 29633.0345501655 -1129.32218360785
 793368.609127279 102786.705862115 -1069.18167869212
 780732.487094436 174516.177160645 -942.074609641522
 761828.293190744 244165.846591368 -831.295613885501
 736631.968616655 312046.335031302 -653.915502367959
 704825.374116366 378445.424039245 -503.016382488534
 665700.255684511 443669.995004387 -324.213483702944
 618984.159207182 506812.168494331 -191.093305720834
 566324.778273765 565045.343760089 -70.7687338415390
 517170.022784354 610356.590405802 -9.02408903801118
 450110.356437451 -661362.054880576 -948.362742847230
 500838.409647788 -623826.898910071 -942.134660271078
 559039.952498977 -572252.813449243 -1024.21158370386
 614146.823049522 -512662.086170751 -1124.78497272283
 662940.919736480 -447780.828649433 -1290.90393753385
 704854.800555050 -378388.383123208 -1393.43170106181
 739750.639000612 -304576.311460233 -1504.19262882893
 767503.139612987 -225691.791155871 -1464.95360424145
 787317.605745143 -141876.732755955 -1407.26196277565
 798187.908999290 -53800.7954493489 -1239.49036200416
 799186.440549113 36050.6310110022 -1176.96480308712
 790173.037367866 125001.475152040 -1096.46096830440
 771863.972299538 210296.979271055 -1090.30979418433
 745218.498205502 290944.074007930 -967.332417100862
 711092.054156071 366534.265230535 -850.251733940935
 669703.240588276 437603.887765870 -637.932407893815
 621270.702131612 504006.439094947 -473.311447597827
 566387.918264646 564981.984125138 -289.236688833269
 508274.103148655 617784.269806695 -179.019100882103
 457495.552810617 656275.710221220 -106.452526291783
 388312.401763582 -699437.240775813 -1012.34999684385
 437720.583242564 -669626.447438843 -1054.46490001227
 497776.538553636 -626272.442023235 -1160.18438800446
 558294.432402917 -572979.450317007 -1369.76725183791
 615514.278269439 -511018.408817532 -1535.93491069828
 667585.545986718 -440824.902198770 -1715.92280178929
 713597.573258591 -361629.216102875 -1677.34917946221
 752043.937131360 -272814.317755938 -1504.87585006042
 780880.335293288 -173852.813910852 -1049.30811574857
 797212.877614619 -66717.1817343274 -667.403062955621
 798762.488556916 44477.8472063904 -456.050707905342
 785197.710206071 153180.053238754 -653.587726786495
 758379.466061526 254675.948009965 -864.269320816708
 721155.520251891 346314.336089023 -1047.00976308143
 675743.100668222 428217.595218984 -976.239811183890
 623853.490423598 500805.439478403 -856.898557805632
 566535.328261749 564833.900430138 -621.897281282069
 505733.408322710 619865.721415164 -455.105212588728
 445256.231340164 664640.355233570 -294.359897676274
 395417.006615425 695446.143124312 -229.984383140437
 326965.805451319 -730131.565714213 -1121.96848533636
 372906.064030767 -707770.926463622 -1176.03652590317
 431318.695272221 -673767.233998812 -1377.49710006214
 493932.568060281 -629307.626593166 -1590.38393250616
 556976.868478378 -574258.961892468 -1847.34030585179
 618597.609478265 -507280.577394109 -1847.52441779667
 676767.417110709 -426595.222369371 -1542.52679982782
 729002.870829405 -329476.115064387 -551.293537459473
 770675.140376892 -214613.706027538 886.109577193820
 795622.728090230 -83540.2205341086 2346.50791000250
 798084.271729234 55267.1234740252 2653.35284592222
 777290.377854286 189252.498476355 1777.72765014500
 738152.688653793 308432.218491057 418.126609612286
 686977.502785031 409953.246812447 -496.079809266894
 628888.022966600 494468.323811954 -965.047024030204
 566794.285358242 564573.582034126 -953.181197362084
 503007.951346324 622079.025553465 -828.763431843680
 439524.581038797 668444.306202484 -593.437570804418
 380240.807575447 703858.455992732 -449.646416894782
 333583.417259116 727132.710884936 -352.832615614206
 266611.793017785 -754265.614548320 -1238.76304725650
 307122.591809509 -738697.432062473 -1348.13371693088
 360803.040360745 -714015.943101959 -1548.89078451942
 421320.652516045 -680062.839793202 -1855.18081592084
 486531.459968966 -635045.944161218 -1946.08963158962
 554879.693784397 -576286.244319745 -1640.13218272866
 625102.576063031 -499246.165717597 -188.190442455297
 693734.255184712 -398402.716909656 2838.72195111307
 753826.944417496 -267743.639669419 7634.21814943904
 792709.740872481 -107062.269199346 12203.9845858376
 796790.930903123 70365.6656954079 13148.5939087266
 764122.494370038 236699.124150022 9504.64225123505
 706797.949903460 374717.153467572 4869.59027293632
 638432.933332855 482080.229473184 1428.98113615318
 567226.241787455 564140.336278883 -267.601995350254
 497445.432669687 626535.874527368 -916.213018033571
 430726.698747620 674146.639756171 -905.036706672460
 368811.564316904 709913.681815770 -770.971396824860
 313916.594220198 735836.970711773 -569.567302075616
 272525.688139374 752149.927592182 -485.517493611704
 206803.775395420 -772806.778790701 -1371.54560324570
 240328.372700603 -763046.588033494 -1475.72542260764
 286075.382560520 -747099.586608002 -1755.89948582749
 340342.432292645 -723991.195372807 -1943.65732091608
 402246.314020489 -691516.134830136 -1827.05405479836
 472541.254594846 -645526.583533422 -438.927780223306
 551467.309413005 -579544.451005397 3469.28777044612
 637848.475189055 -482705.030532365 12048.9085707587
 723384.600479246 -340646.085761493 25980.0701472495
 786187.983671413 -142289.714237512 40768.7570681879
 793376.039386522 93127.1899756929 43379.5644812892
 739692.169493478 303156.059400867 30852.8449023792
 656035.658282566 457551.280671728 16249.3266759684
 567943.368997064 563380.733508891 6517.57034859473
 486335.862787303 635196.879840817 1533.75598449833
 413448.126850420 684879.926840849 -363.612914777061
 349358.955286929 719685.683060747 -915.400575075720
 293321.568710952 744286.068024055 -840.401236490050
 246215.239403421 761168.543247506 -710.391431784268
 211770.348357315 771461.579226220 -592.734686310838
 146979.851245552 -786380.790141467 -1475.20314432563
 171948.987426481 -781300.777782388 -1624.91834993804
 207081.568028892 -772731.419515439 -1837.79116080932
 250215.736155920 -759860.653089673 -1968.06150472183
 302514.892733367 -740596.635238212 -1167.71073371644
 366231.552965263 -711245.719467165 1994.02915904067
 445714.685897474 -664240.182809087 11108.4795119863
 544923.520251430 -584850.745645586 31748.4234977427
 661754.974573371 -444113.440010850 69596.0202104134
 765571.172172688 -201302.158984341 115664.260367584
 779117.252205644 132491.616828305 124186.467804462
 687380.637654251 400921.983744161 82276.4968182479
 568580.523873337 561278.214998851 41023.8130800275
 464082.714025948 651423.898749611 16557.1338149814
 379891.657074835 704028.009470382 5185.63073380711
 312673.434786235 736365.981698609 681.304646646772
 257854.963451300 757304.694706170 -645.909842215074
 212929.764887769 771142.069811806 -907.409061197519
 176518.485194748 780282.398713794 -776.300199586738
 150745.585900619 785668.686665399 -695.071899271518
 86675.1078036421 -795289.228506087 -1571.21272206666
 101954.857910483 -793474.858198208 -1690.07567469508
 123707.838864475 -790374.990955762 -1935.01296167385
 151461.713487522 -785529.248807099 -1774.43398844398
 186374.198539322 -777987.520760417 -275.063418849864
 232195.137250797 -765541.552316239 5616.93104167318
 295136.080259003 -743227.909422914 22515.9673164760
 386948.118695558 -697175.647654995 64940.5093513022
 521383.801057039 -586585.943829926 155163.985822961
 679386.900021655 -306200.300292495 290989.374685316
 704189.795105572 206113.251313048 318800.972555506
 556597.916157572 543296.445523721 187156.971578241
 412055.479658390 680609.081939421 83555.7255074285
 311312.869568199 736252.412231392 31885.4625914438
 242798.245934880 762197.651888483 10185.8346063787
 193606.886835895 776216.069588509 2233.08805920009
 156604.030621077 784522.190382511 -332.250900814440
 127479.863619087 789777.291559592 -845.049380147489
 104828.159999719 793101.708980187 -857.953249911580
 88996.8314852239 795033.956282331 -756.533974935277
 25929.4224395863 -799578.044099482 -1617.54319718874
 30539.0578975758 -799414.926369070 -1772.41108747854
 37296.9421004714 -799127.800449206 -1922.66980205671
 45854.6641920389 -798682.956538889 -1698.44226706154
 57145.8887525503 -797956.191239467 514.063501567118
 72368.6035566751 -796675.122987567 8457.75573084367
 95302.1336952680 -793630.665251035 32678.2876896772
 133612.551705302 -782563.486600560 98701.9526978798
 204813.457338555 -727362.550617362 262669.312353831
 321699.156333383 -453062.030951830 575538.399174366
 344683.226908671 316027.128115583 649091.925217718
 227253.010448254 694320.480042999 325998.681339457
 145579.985808979 776063.424368487 128576.938403880
 101706.980812472 792196.247114850 45615.7441149388
 76124.2783134239 796241.241082874 14317.1313490244
 59554.8551490310 797773.273707017 3320.08839742910
 47494.8671769765 798588.903719368 -21.1693183553279
 38479.2556137464 799073.589376503 -863.509329557210
 31419.0601661138 799382.315475585 -869.691423112149
 26637.2368201198 799555.999057543 -813.625025522046
 -34985.2267877220 -799232.952602168 -1649.66100519414
 -41196.2213231569 -798936.630392311 -1769.73615928400
 -50274.1398598206 -798416.254359293 -1998.90876048094
 -61840.8081610765 -797604.405888542 -1710.60023720662
 -77050.1594159779 -796280.839421260 312.577262636453
 -97571.5130996502 -793986.356533833 8091.07345009021
 -128126.272094964 -789051.484114838 31327.5248817852
 -178210.150117921 -774167.604859195 94369.8149914796
 -268286.872481505 -711739.687552701 247888.626638006
 -410035.666733329 -433870.215128649 532566.792459663
 -437135.307291354 301486.724434099 598346.453243679
 -295903.203604176 677117.021335934 306518.895851362
 -193476.872824947 766499.059578022 122661.694704940
 -136504.784272613 787046.031844955 43874.6809423811
 -102568.324590673 793279.352910412 13696.9718077074
 -80287.2521326956 795954.729693146 3166.29501029708
 -64061.6444337925 797430.925614771 -156.797986167257
 -51879.6552055106 798315.567022708 -869.956877951233
 -42396.3430997388 798875.264020192 -928.777927634255
 -35951.1806830231 799191.353406557 -832.614972008608
 -95538.9795805238 -794273.034659414 -1627.81867416694
 -112300.984284261 -792076.567006116 -1789.11391235197
 -136136.150385675 -788329.239188094 -1989.77367818721
 -166465.588218822 -782486.590531364 -1985.84429515545
 -204469.899217783 -773428.562093419 -565.377729054913
 -253950.750917350 -758608.566058422 4696.76604664732
 -320990.467054863 -732501.114173303 20180.1336658820
 -416542.683470572 -680511.521447734 58277.4572542963
 -551546.680578138 -562896.332801489 137637.123124073
 -702887.347753963 -286324.645851681 252918.116285310
 -725873.675244427 192063.389201429 276078.000057247
 -585827.620448519 519102.606985850 165343.528872827
 -442034.161408054 662552.380879323 75034.2770966672
 -337908.220331429 724564.933318062 28700.0355093925
 -265254.966105764 754690.422672102 9064.70535836144
 -212278.991238159 771320.103200873 1711.22093987145
 -172062.996460102 781277.204774955 -504.527705007164
 -140264.956474925 787606.955543864 -1012.70134474267
 -115457.287630494 791624.127442026 -924.978193702547
 -98095.5559760879 793962.556209503 -849.255564642147
 -155505.429809653 -784739.145753406 -1591.98678698919
 -181746.868076624 -779079.675278341 -1713.33374805794
 -218571.109483467 -769559.999485023 -2019.23049180901
 -263602.375568676 -755320.620477270 -2132.57505925153
 -317861.709546519 -734139.852860430 -1615.56374980144
 -383327.903080481 -702181.109733739 1186.52982061980
 -463805.312248765 -651769.258059426 9025.88380656675
 -562102.898211634 -568604.682870076 27000.8599918782
 -674511.307580908 -426062.465666406 59205.3316497458
 -770948.514774050 -190027.213755425 97611.7083143036
 -783218.547305239 125034.564565159 104570.860286571
 -698497.328268852 383661.680375080 70037.1145396867
 -585005.643991674 544556.458233235 35023.7104596493
 -482054.624248161 638300.695305661 13984.3345666761
 -397161.106856197 694440.125525837 3995.90545668301
 -328288.939712862 729538.437234021 201.644108838312
 -271519.208678197 752513.362003488 -979.451363432435
 -224673.069849932 767802.643011792 -1055.02052802503
 -186537.828368077 777947.776123042 -946.685235231001
 -159466.065996518 783945.087740453 -820.489614808330
 -214911.341416453 -770591.223538727 -1510.47531260467
 -249452.934759418 -760112.166481716 -1651.57693852450
 -296429.637324626 -743051.733854588 -1894.97527195327
 -351885.705786311 -718450.763099617 -2225.09884010500
 -414700.887447009 -684118.834703258 -2143.35132893987
 -485340.276864097 -635958.686545223 -1168.18712381467
 -563581.982126636 -567776.954622158 2163.15098829070
 -647716.776752900 -469443.513079602 9260.94705285573
 -729207.985513473 -328353.920491589 20962.2699435186
 -787678.276815363 -135905.212177014 33056.0968098301
 -794238.399104271 89108.8980058989 35284.1279396146
 -744410.127533691 291940.004159761 24991.9186232752
 -665068.462202526 444427.302726775 12973.5567432749
 -579628.053118084 551369.872894170 4752.18930666517
 -498997.553496696 625300.681106641 706.973749159135
 -425933.663391817 677185.133250320 -899.830191409101
 -361015.983036205 713909.009846208 -1177.13754952029
 -303821.530428303 740061.662071007 -1101.80801506396
 -255491.453911505 758105.104236155 -876.304326777545
 -220024.920364395 769147.855173791 -781.856891887292
 -274289.298252630 -751507.371181718 -1432.45370722470
 -315536.889500290 -735142.286335023 -1513.34285528761
 -369988.691708874 -709299.073101780 -1786.87003177819
 -431046.733171632 -673939.524507281 -2056.97082231758
 -496382.921165890 -627374.365810136 -2323.94043523581
 -564228.935919446 -567134.330649903 -2087.79057769331
 -633143.318779222 -489007.529121414 -1083.67329161972
 -699547.186665784 -388112.955520879 1437.84033661495
 -756791.843987719 -259304.272370458 5234.42490594960
 -793271.121325210 -103147.184854781 9032.51504166145
 -797046.561600219 67986.6468918326 9725.96965218646
 -766425.537092090 229225.178011800 6907.52188265463
 -711967.226353097 364819.314649325 3088.08320393376
 -646013.051521401 471875.986635753 436.463678484527
 -576310.896165252 554855.688816805 -956.843159510322
 -507185.212988577 618677.215129300 -1289.65328054103
 -440443.148785988 667838.490390079 -1258.34851429903
 -378049.304002888 705037.402450471 -992.415650417730
 -322415.278359897 732152.796232632 -819.297777865134
 -280301.418662356 749286.740851042 -703.335406221220
 -334245.248111080 -726827.568699467 -1341.45204263006
 -380635.590023269 -703643.762001771 -1415.55771113308
 -439373.341571080 -668542.128216859 -1577.81999458461
 -501998.788374512 -622891.382461669 -1882.05353624903
 -564623.962065065 -566741.001408570 -2102.09047357047
 -625344.984716219 -498937.309563441 -2282.80876711016
 -682107.404866620 -418001.621881884 -2032.81338055006
 -732538.477301909 -321536.035252192 -1399.03770542844
 -772313.053143585 -208644.462800977 -189.964533345582
 -795895.542851011 -80929.1597975093 869.462111617386
 -798194.271151452 53706.6509244756 1225.21323784150
 -778536.698823211 184066.255832418 471.221064535996
 -741238.387963303 300940.924671292 -460.507928774122
 -691926.615548893 401542.156210590 -1206.43309206467
 -635349.597938148 486136.749496949 -1396.13336546789
 -574261.813588932 556975.305286430 -1370.67670816100
 -510984.765921611 615543.133741348 -1104.30970281768
 -447557.608571591 663092.280991105 -902.163894445704
 -387995.424116557 699613.511010224 -697.191911487995
 -340914.666056451 723724.253636507 -628.622222097807
 -395247.859791541 -695541.139306129 -1285.63717233285
 -444800.355834815 -664944.332798648 -1295.27147105047
 -504769.429106688 -620649.462151618 -1438.25248684732
 -564874.599889479 -566492.827286215 -1600.94752332906
 -621361.679469957 -503891.071390229 -1857.81039994246
 -672402.148791057 -433441.307898727 -1995.72247843653
 -717161.374814433 -354506.837574726 -2112.95694202467
 -754245.213630270 -266665.274979227 -1946.49327810823
 -781840.923836320 -169475.183886319 -1712.26793095251
 -797362.887715130 -64889.4788700201 -1334.47613872793
 -798820.907572208 43400.5013725465 -1246.63792852738
 -785921.404217051 149418.593230245 -1276.86749290643
 -760276.884372207 248951.566893298 -1475.27308021165
 -724418.091043742 339435.248301433 -1463.41350414348
 -680301.510342912 420936.896874848 -1408.50080845534
 -629503.549871826 493684.036161468 -1163.24464010128
 -572981.437459413 558293.229571114 -970.639995435811
 -512651.211256019 614156.490288255 -735.550507211522
 -452310.005763111 659860.048153730 -612.810845139525
 -402360.687812805 691451.794037100 -541.687809639292
 -456749.411797551 -656794.021797533 -1260.06095685261
 -507294.768583683 -618587.476353225 -1245.73936893463
 -565026.474103655 -566342.151026667 -1285.11963577009
 -619426.277725795 -506269.753174216 -1422.49206847449
 -667339.493413958 -441197.950613607 -1539.12454144151
 -708269.510235878 -371956.111864436 -1718.05614588583
 -742135.065904158 -298717.859670454 -1784.45211045673
 -768904.826003026 -220866.267429796 -1860.23140652279
 -787901.861343632 -138591.219552431 -1769.39374086621
 -798276.825818361 -52451.3583628135 -1721.73379424743
 -799221.198769892 35255.4929632247 -1589.23023382311
 -790610.378696806 122199.664198349 -1571.99449828545
 -773062.751947607 205844.291354726 -1452.33187106030
 -747381.041283668 285341.372211628 -1371.28922005196
 -714293.992956401 360253.725263446 -1159.76730853465
 -673914.720172477 431089.268966531 -996.050577766685
 -626398.610046129 497618.510266039 -774.320918990506
 -572263.317062391 559029.776484724 -636.355394887365
 -514661.236930102 612473.304163683 -512.726435406267
 -464100.621696230 651621.349106737 -479.926546467517
 -516077.047893218 -611279.628029587 -1302.68715760969
 -565098.579990177 -566270.322931844 -1231.36499547011
 -617524.748278973 -508587.906862209 -1235.41754377284
 -663952.507445414 -446279.572002337 -1269.43702480092
 -702789.661217329 -382210.436393275 -1369.08659082908
 -734378.836035705 -317310.027100008 -1439.40426396772
 -759518.532114838 -251255.271166820 -1545.34300697580
 -778624.694335358 -183687.590668309 -1566.65428271485
 -791815.996092042 -114126.527462277 -1601.26892434545
 -798841.913237044 -43002.7726807349 -1535.96795131421
 -799471.505050533 29035.4057649037 -1502.60583735273
 -793645.664220769 100621.260317683 -1386.23073625953
 -781510.382496660 170996.562518384 -1302.94160268904
 -763288.084580610 239562.125542602 -1134.87566419157
 -738887.603757807 306666.122670338 -999.109296889395
 -707949.500479246 372567.908197494 -811.512494708817
 -669725.962666048 437569.053580193 -676.963787521304
 -623906.582051421 500739.739452188 -538.707963188289
 -572056.624281296 559241.450378690 -467.754451240160
 -523469.548120840 604962.346229138 -437.989840204480
 -565097.245891778 -566271.254780491 -1403.10187010981
 -610242.123523963 -517303.458117830 -1297.26493014870
 -655883.820704539 -458055.527344623 -1244.02855907104
 -694760.343751053 -396618.824465468 -1254.12541184010
 -726150.914641356 -335712.952887822 -1289.35210955153
 -750952.605442174 -275804.910053104 -1354.97978195502
 -770145.745707751 -216503.035696718 -1402.10640034950
 -784425.914041115 -157079.231679047 -1449.26046009333
 -794083.469046053 -97104.8442748541 -1446.86078960352
 -799169.490834008 -36415.3051499819 -1431.94655812594
 -799619.755021207 24624.9205663501 -1364.06265461000
 -795405.489022623 85606.3400552467 -1289.40879055442
 -786545.834162362 146096.838302995 -1168.16082074090
 -772978.610717199 206162.492341710 -1046.00437989060
 -754436.037980349 266130.543556508 -893.522708868602
 -730268.103211208 326661.787782413 -757.519044319375
 -699550.688022327 388108.811843107 -620.529790589833
 -661434.051052478 450005.250238287 -520.448158878731
 -616655.644416993 509642.631750444 -451.786615177847
 -572373.443358799 558917.211182019 -438.613847120685
# End: Data Text
# End: Segment
