# ODT 1.0
# Table Start
# Title: mmArchive Data Table, Fri Apr 16 16:27:07 CEST 2021
# Columns: {Oxs_RungeKuttaEvolve:evolver:Total energy} {Oxs_RungeKuttaEvolve:evolver:Energy calc count} {Oxs_RungeKuttaEvolve:evolver:Max dm/dt} Oxs_RungeKuttaEvolve:evolver:dE/dt {Oxs_RungeKuttaEvolve:evolver:Delta E} Oxs_UniformExchange:exchange:Energy {Oxs_UniformExchange:exchange:Max Spin Ang} {Oxs_UniformExchange:exchange:Stage Max Spin Ang} {Oxs_UniformExchange:exchange:Run Max Spin Ang} Oxs_Demag:demag:Energy Oxs_FixedZeeman:zeeman:Energy Oxs_TimeDriver::Iteration {Oxs_TimeDriver::Stage iteration} Oxs_TimeDriver::Stage Oxs_TimeDriver::mx   Oxs_TimeDriver::my   Oxs_TimeDriver::mz   {Oxs_TimeDriver::Last time step} {Oxs_TimeDriver::Simulation time}
# Units:                        J                                             {}                                         deg/ns                                 J/s                                   J                                     J                                      deg                                            deg                                              deg                                 J                          J                          {}                            {}                          {}                   {}                   {}                   {}                          s                                 s                
                       1.85370279653e-18                              43                                           233.28057670600001                   -2.05282826789e-10                   -2.31493855505e-22                    1.3262302565799999e-18                     57.808185459999997                             58.126414903700002                               58.126414903700002                  5.27472539942e-19         0                           6                             6                           0                     0.35162842769500002  0.00073414059447000002  0.023157583629799999        1.1792168360200001e-12              9.9999999999999994e-12       
                       1.85096738212e-18                              80                                           381.44388769199998                   -3.2792139873899999e-10                 -5.16550235792e-22                    1.3334874014100001e-18                     58.286516604100001                             58.286516604100001                               58.286516604100001                  5.1747998070999996e-19       0                           12                            5                           1                     0.33598081559499998  0.0025176529360500001  0.023064015555300001        1.6065621743099999e-12              1.9999999999999999e-11       
                       1.84751630997e-18                              117                                          510.87515886699998                   -3.4498822136799998e-10                 -3.0122335983700002e-22                  1.3422599714999999e-18                     59.576208438099997                             59.576208438099997                               59.576208438099997                  5.0525633847499999e-19       0                           19                            6                           2                     0.31845732994300002  0.00588373496462     0.0228167517946            8.6996739899299999e-13              3e-11                     
                       1.8443163132200002e-18                            154                                          599.68654734100005                   -2.8825856833900001e-10                 -2.4599979067400001e-22                  1.3492269326799999e-18                     60.742972950599999                             60.742972950599999                               60.742972950599999                  4.9508938054000003e-19       0                           26                            6                           3                     0.30318081103400002  0.0109414734452      0.022384886157199999        8.4439724810999998e-13              3.9999999999999998e-11       
                       1.8418015819499998e-18                            191                                          676.44641416699994                   -2.1591206495200001e-10                 -2.0928877497000001e-22                  1.35272845022e-18                       61.359905217399998                             61.359905217399998                               61.359905217399998                  4.8907313172399997e-19       0                           33                            6                           4                     0.29216139177200001  0.017440051440799999  0.021858120951399999        9.5497240037800002e-13              5.0000000000000002e-11       
                       1.8399377729999998e-18                            234                                          697.05358932800004                   -1.61544968199e-10                   -1.3283904227800001e-22                  1.3531661060200001e-18                     61.2818503871                                  61.410124149700003                               61.410124149700003                  4.8677166698099998e-19       0                           40                            6                           5                     0.28568138932300002  0.024938484703800001  0.021398646693000001        8.1338525866600001e-13              6e-11                     
                       1.8384862672699999e-18                            271                                          675.27788122899995                   -1.3310674588200001e-10                 -1.37979317412e-22                    1.35190975459e-18                       60.627550439300002                             61.2818503871                                    61.410124149700003                  4.8657651267299997e-19       0                           47                            6                           6                     0.28296750734499998  0.032971777900300002  0.021130078933599999        1.0288520315400001e-12              7.0000000000000004e-11       
                       1.8372241422000001e-18                            308                                          631.170528182                        -1.2132469290899999e-10                 -1.04359873708e-22                    1.3502190875299999e-18                     59.565375923200001                             60.627550439300002                               61.410124149700003                  4.8700505467399997e-19       0                           54                            6                           7                     0.28278131134500001  0.041136722673699999  0.021075365550800002        8.5672113231799999e-13              7.9999999999999995e-11       
                       1.83606070429e-18                              345                                          576.088991362                        -1.1163458164999999e-10                 -1.00824512729e-22                    1.3487206179799999e-18                     58.202822758000003                             59.565375923200001                               61.410124149700003                  4.8734008631299997e-19       0                           61                            6                           8                     0.28382989884299997  0.049106695234500002  0.021180702312000001        8.9763485894799998e-13              8.9999999999999999e-11       
                       1.8350161354899999e-18                            382                                          523.645083236                        -9.7546545444100001e-11                 -1.01512765046e-22                    1.3475282800399999e-18                     59.4301866116                                  59.4301866116                                    61.410124149700003                  4.8748785545499997e-19       0                           68                            6                           9                     0.28500411076100002  0.056620392950700003  0.0213710996387            1.0308352107e-12                 1e-10                     
                       1.83411885063e-18                              419                                          481.83088135499997                   -8.3284117905699996e-11                 -8.3239546570299996e-23                  1.3465914413300001e-18                     60.8352047817                                  60.8352047817                                    61.410124149700003                  4.8752740930400004e-19       0                           75                            6                           10                    0.28548359115600003  0.063492311559499998  0.021588160983899998        9.9042617598599996e-13              1.0999999999999999e-10       
                       1.8333389853399999e-18                            456                                          458.471064232                        -7.4784202382900001e-11                 -7.5595534947299997e-23                  1.3459213863e-18                        61.6874877005                                  61.6874877005                                    61.6874877005                       4.8741759904700004e-19       0                           82                            6                           11                    0.28476016709300001  0.069644439298100005  0.021801162423600001        1.0056144534800001e-12              1.2e-10                   
                       1.8326051275799998e-18                            493                                          449.127582878                        -7.4037936897600005e-11                 -7.4075291951800001e-23                  1.3455708462500001e-18                     62.014711194599997                             62.014711194599997                               62.014711194599997                  4.8703428132800003e-19       0                           89                            6                           12                    0.28261852099500001  0.075120495846800001  0.021999001238600002        1.00028600134e-12                1.2999999999999999e-10       
                       1.8318451784500001e-18                            530                                          490.99259528599998                   -7.9619924126700004e-11                 -7.9501948829599996e-23                  1.34552128674e-18                       61.808511112200001                             62.017898784300002                               62.017898784300002                  4.8632389170700004e-19       0                           96                            6                           13                    0.279094552868       0.0800667449877      0.022173686900599999        1.0016396202500001e-12              1.4000000000000001e-10       
                       1.8310083858000001e-18                            567                                          542.58798907400001                   -8.8932270337899999e-11                 -8.8615769404599995e-23                  1.34568306568e-18                       61.040663626799997                             61.808511112200001                               62.017898784300002                  4.8532532012300001e-19       0                           103                           6                           14                    0.27441755120200001  0.084694227820499998  0.0223098492496            1.00059883306e-12                1.5e-10                   
                       1.83007202896e-18                              604                                          590.46372474299994                   -9.9033292516100001e-11                 -9.8768789130400002e-23                  1.3459917312e-18                        59.695383355300002                             61.040663626799997                               62.017898784300002                  4.8408029776300003e-19       0                           110                           6                           15                    0.26894032904600002  0.089237454735799998  0.022387586961199999        1.00080054799e-12                1.5999999999999999e-10       
                       1.8290426044699999e-18                            641                                          627.60304987100005                   -1.07131635473e-10                   -1.06978987929e-22                    1.34646942654e-18                       57.786229916800004                             59.695383355300002                               62.017898784300002                  4.8257317792800003e-19       0                           117                           6                           16                    0.26306095555499998  0.093912944943600002  0.022392642144699999        1.00037082257e-12                1.7000000000000001e-10       
                       1.8279506077000002e-18                            678                                          644.95873285699997                   -1.1133620900700001e-10                 -1.11299526644e-22                    1.34719162939e-18                       56.951753456299997                             57.786229916800004                               62.017898784300002                  4.80758978314e-19         0                           124                           6                           17                    0.25714421831399997  0.098879683254600004  0.0223238331659            9.9944239957799996e-13              1.8e-10                   
                       1.8268389832399999e-18                            715                                          639.15367201000004                   -1.11066053603e-10                   -1.11161035424e-22                    1.3482017059399999e-18                     58.916310192600001                             58.916310192600001                               62.017898784300002                  4.7863727729900003e-19       0                           131                           6                           18                    0.25146153437899998  0.1042089395         0.0221937432648            9.9868275472899996e-13              1.8999999999999999e-10       
                       1.8257505105299999e-18                            752                                          611.55898079099995                   -1.06857138257e-10                   -1.07054381568e-22                    1.34944917901e-18                       60.378494488100003                             60.378494488100003                               62.017898784300002                  4.7630133152199999e-19       0                           138                           6                           19                    0.24616678279900001  0.109872798267       0.0220246742404            9.9796219947700009e-13              2.0000000000000001e-10       
                       1.82471931324e-18                              789                                          569.07056490100001                   -9.9809403843999999e-11                 -1.0007406554e-22                     1.3508019371400001e-18                     61.257654495899999                             61.257654495899999                               62.017898784300002                  4.7391737609800004e-19       0                           145                           6                           20                    0.24130815975100001  0.11575601932        0.021843213204100001        9.9736006502199991e-13              2.1e-10                   
                       1.8237678214599999e-18                            826                                          519.46494499400001                   -9.1103147413899996e-11                 -9.1404791435000002e-23                  1.35211026792e-18                       61.563495304                                   61.563495304                                     62.017898784300002                  4.7165755354400001e-19       0                           152                           6                           21                    0.23685869850399999  0.121686550039       0.021675655212299999        9.96866614067e-13                2.1999999999999999e-10       
                       1.8229071274300001e-18                            863                                          477.519505256                        -8.1819300934200004e-11                 -8.2125810860900003e-23                  1.35325424686e-18                       61.366943235199997                             61.563495304                                     62.017898784300002                  4.6965288056999998e-19       0                           159                           6                           22                    0.23274538503600001  0.12747340063500001  0.021545211613699999        9.9648331323600001e-13              2.3000000000000001e-10       
                       1.8221380220199999e-18                            900                                          456.321645816                        -7.2943802888200001e-11                 -7.3221975062600002e-23                  1.3541412681200001e-18                     60.7507270097                                  61.366943235199997                               62.017898784300002                  4.6799675390099997e-19       0                           166                           6                           23                    0.22886767658900001  0.132941340223       0.021470758195400001        9.962008773320001e-13              2.4e-10                   
                       1.82145181054e-18                              937                                          438.98132896700002                   -6.5382329947000004e-11                 -6.5594111393399997e-23                  1.35468592855e-18                       59.787996171099998                             60.7507270097                                    62.017898784300002                  4.6676588199600003e-19       0                           173                           6                           24                    0.22510817218500001  0.13795699871        0.021465936142699999        9.95998595172e-13                2.5000000000000002e-10       
                       1.8208314607099999e-18                            974                                          425.90384573699998                   -5.9879601903299996e-11                 -5.9990784926399997e-23                  1.3548181824e-18                        59.235553917899999                             59.787996171099998                               62.017898784300002                  4.6601327831299996e-19       0                           180                           6                           25                    0.221342205943       0.142445187764       0.021537258496300001        9.9584623314200004e-13              2.5999999999999998e-10       
                       1.8202537048600001e-18                            1011                                         422.51572589599999                   -5.6923604398599999e-11                 -5.6907486322899997e-23                  1.3545220240399999e-18                     60.322135710799998                             60.322135710799998                               62.017898784300002                  4.6573168082100003e-19       0                           187                           6                           26                    0.217449959704       0.14639553279199999  0.0216809336376            9.9571485174299999e-13              2.7e-10                   
                       1.8196919417100001e-18                            1048                                         425.03575525799999                   -5.6690842644199997e-11                 -5.6545676479400004e-23                  1.35386927272e-18                       61.089562632000003                             61.089562632000003                               62.017898784300002                  4.6582266899399999e-19       0                           194                           6                           27                    0.213329652535       0.149859378825       0.021879973479499999        9.95789599047e-13                2.8000000000000002e-10       
                       1.8191192238e-18                               1085                                         436.07689347399997                   -5.9084400299900003e-11                 -5.8830379572899998e-23                  1.35301686971e-18                       61.553514446900003                             61.553514446900003                               62.017898784300002                  4.66102354087e-19         0                           201                           6                           28                    0.208907714317       0.15293771896200001  0.022104262425599999        9.9625764543099993e-13              2.8999999999999998e-10       
                       1.8185106603799998e-18                            1122                                         467.29220561900001                   -6.3800154817699999e-11                 -6.3402662899300004e-23                  1.3521683903999999e-18                     61.717384696099998                             61.717384696099998                               62.017898784300002                  4.6634226997800003e-19       0                           208                           6                           29                    0.20414262878700001  0.155762779696       0.022315264350499998        9.9596583616900002e-13              3e-10                     
                       1.8178452599999998e-18                            1159                                         503.78566741100002                   -7.0359214964699999e-11                 -6.9851076943000004e-23                  1.35152344111e-18                       61.568159287299999                             61.717384696099998                               62.017898784300002                  4.6632181888399999e-19       0                           215                           6                           30                    0.199022139697       0.15847702385199999  0.022474429407899999        9.9589921063700001e-13              3.1000000000000002e-10       
                       1.81710802185e-18                              1196                                         538.56622730000004                   -7.8018918317199998e-11                 -7.7427137906100002e-23                  1.35123723454e-18                       61.073565111299999                             61.568159287299999                               62.017898784300002                  4.6587078731099997e-19       0                           222                           6                           31                    0.193556794437       0.16121234613900001  0.022552219579700002        9.9566827966000009e-13              3.1999999999999998e-10       
                       1.8162932675800002e-18                            1233                                         565.25019663900002                   -8.5633352953400001e-11                 -8.5020140546600003e-23                  1.3513936575600001e-18                     60.204309644399999                             61.073565111299999                               62.017898784300002                  4.6489961001800002e-19       0                           229                           6                           32                    0.18777455519899999  0.16407018215499999  0.022534692907500001        9.9539693755299997e-13              3.3e-10                   
                       1.8154091133599999e-18                            1270                                         577.78566402399997                   -9.1610773967100004e-11                 -9.1056230043200004e-23                  1.3519821558e-18                        58.9519750997                                  60.204309644399999                               62.017898784300002                  4.6342695755599996e-19       0                           236                           6                           33                    0.18172011133099999  0.167102659215       0.022426530804900001        9.9502590574900008e-13              3.4000000000000001e-10       
                       1.81448046503e-18                              1307                                         569.48697209600004                   -9.4285350616900001e-11                 -9.3871155266199996e-23                  1.35287616349e-18                       57.819919538199997                             58.9519750997                                    62.017898784300002                  4.61604301544e-19         0                           243                           6                           34                    0.175458581911       0.17029742934299999  0.022251203677300001        9.9457434172399997e-13              3.4999999999999998e-10       
                       1.81354616159e-18                              1344                                         539.327749563                        -9.2679825555900003e-11                 -9.2441714817499997e-23                  1.35383528525e-18                       59.785781640300002                             59.785781640300002                               62.017898784300002                  4.5971087634499998e-19       0                           250                           6                           35                    0.16907856002300001  0.17357289967        0.0220487895631            9.9405162488100001e-13              3.6e-10                   
                       1.8126484403999999e-18                            1381                                         491.86180151799999                   -8.7145479255100005e-11                 -8.70597084421e-23                    1.3545632139100001e-18                     61.1167112754                                  61.1167112754                                    62.017898784300002                  4.5808522648899996e-19       0                           257                           6                           36                    0.162687583735       0.17679139934999999  0.0218702566333            9.9349315499e-13                 3.7000000000000001e-10       
                       1.8118195261499998e-18                            1418                                         436.70775224499999                   -7.9237197508700005e-11                 -7.9341518842399995e-23                  1.3548189030099999e-18                     61.726251746999999                             61.726251746999999                               62.017898784300002                  4.5700062313400002e-19       0                           264                           6                           37                    0.15639669879000001  0.17979147237500001  0.0217666742337            9.9430056718700007e-13              3.7999999999999998e-10       
                       1.8110733861599999e-18                            1455                                         440.22330486800001                   -7.08956438731e-11                   -7.1007486709499999e-23                  1.3545197998200001e-18                     61.633793133700003                             61.769860811900003                               62.017898784300002                  4.5655358634499997e-19       0                           271                           6                           38                    0.15029806186200001  0.18242979414499999  0.0217748277394            9.9397717711500001e-13              3.9e-10                   
                       1.8104061033100001e-18                            1492                                         445.18363804500001                   -6.3664061282500004e-11                 -6.3717676571700001e-23                  1.35376471122e-18                       60.936118352400001                             61.633793133700003                               62.017898784300002                  4.5664139209699999e-19       0                           278                           6                           39                    0.14444495377200001  0.18461712811299999  0.021904898996599999        9.9359630973499999e-13              4.0000000000000001e-10       
                       1.8098017939899999e-18                            1529                                         451.35457964                         -5.8384623824300004e-11                 -5.8343953144199995e-23                  1.35276741681e-18                       59.754909699000002                             60.936118352400001                               62.017898784300002                  4.57034377185e-19         0                           285                           6                           40                    0.138842658683       0.18633672185700001  0.0221366149801            9.9319009614699997e-13              4.0999999999999998e-10       
                       1.8092393774299999e-18                            1566                                         459.42421949099997                   -5.5284540117799999e-11                 -5.5141388412099998e-23                  1.35176023348e-18                       58.2005065038                                  59.754909699000002                               62.017898784300002                  4.5747914395299998e-19       0                           292                           6                           41                    0.13345268554699999  0.187643197929       0.022425979812899999        9.9284360903999993e-13              4.2e-10                   