# OOMMF OVF 2.0
#
# Segment count: 1
#
# Begin: Segment
# Begin: Header
#
# Title: Oxs_TimeDriver::Magnetization
# Desc: Oxs vector field output
# Desc:  MIF source file: C:/Users/Victor H. González/Documents/GitHub/Intro-to-magnetism-in-python/vortex_dynamics/drive-2/vortex_dynamics.mif
# Desc:  Iteration: 2385, State id: 15031
# Desc:  Stage: 340, Stage iteration: 6
# Desc:  Stage simulation time: 1e-11 s
# Desc:  Total simulation time: 3.41e-09 s
# meshunit: m
# meshtype: rectangular
# xbase: -4.7499999999999995e-08
# ybase: -4.7499999999999995e-08
# zbase: 2.5000000000000001e-09
# xnodes: 20
# ynodes: 20
# znodes: 1
# xstepsize: 5.0000000000000001e-09
# ystepsize: 5.0000000000000001e-09
# zstepsize: 5.0000000000000001e-09
# xmin: -4.9999999999999998e-08
# ymin: -4.9999999999999998e-08
# zmin: 0
# xmax: 4.9999999999999998e-08
# ymax: 4.9999999999999998e-08
# zmax: 5.0000000000000001e-09
# valuedim: 3
# valuelabels: Magnetization_x Magnetization_y Magnetization_z
# valueunits: A/m A/m A/m
#
# End: Header
#
# Begin: Data Text
 560318.706990340 -571000.543019761 -1151.72384384779
 606141.242673095 -522103.086782894 -1077.35903513090
 652535.954502733 -462812.843465511 -1048.81102947055
 692112.549719195 -401221.948020076 -1080.25375251745
 724141.345927396 -340026.535183261 -1125.38425703189
 749496.298631539 -279738.899897153 -1202.58968619206
 769180.330275517 -219909.204042967 -1249.59770953407
 783863.070770980 -159865.542043824 -1301.82507380917
 793835.815177638 -99111.1795598468 -1293.30101322423
 799115.653033381 -37583.6634712761 -1281.13898979288
 799627.334839016 24385.8145216101 -1207.23998028854
 795337.300519368 86239.6918289584 -1137.52178445127
 786270.658144748 147571.774901871 -1011.62885289832
 772397.691294289 208329.090169880 -892.564979262256
 753453.419949785 268900.370522274 -731.231123648772
 728821.042717971 329878.067151723 -590.342047490872
 697558.970276199 391677.536454874 -436.375811606844
 658846.442303599 453785.482190301 -318.774540855569
 613426.141686074 513525.383755251 -221.212927338963
 568569.578516436 562786.462993281 -177.361652916424
 511140.018300285 -615414.256444475 -1083.81588730797
 560582.205148375 -570742.082417568 -1032.77715106853
 613596.375907547 -513320.915957184 -1060.52534194751
 660706.970580896 -451071.043636059 -1101.18976185323
 700200.196051289 -386934.362333562 -1218.48071649614
 732458.586261030 -321718.469102887 -1282.98503056606
 758188.869854464 -255240.425503018 -1401.00601330924
 777847.770626609 -186951.512526774 -1406.30550273697
 791459.431288727 -116575.605175157 -1448.06842736407
 798768.091695342 -44358.4932136755 -1363.73354984409
 799482.554898277 28737.4767017684 -1342.32862595894
 793537.007860201 101476.799115592 -1215.07099912413
 781121.666266014 172764.636971933 -1150.08771890105
 762463.321952947 242175.013851798 -972.287178637966
 737570.711775733 309820.472439832 -848.520947345899
 706048.566781397 376158.217909836 -645.325369459787
 667251.594497616 441333.262268734 -511.131710735936
 620824.327450878 504556.271248936 -351.551609037133
 568453.531582567 562903.643206778 -266.262735360412
 519485.386662277 608387.120621883 -210.963879942894
 451649.700055974 -660311.595371933 -1070.26011853535
 502321.609044339 -622632.994387542 -1074.88934747539
 560429.301758466 -570892.064604485 -1117.27442838177
 615333.961975621 -511236.243231628 -1272.33871228655
 663937.801674437 -446301.130371341 -1377.14813219091
 705569.521778688 -377053.291200071 -1570.20132096480
 740233.179757713 -303401.135853190 -1609.45605081685
 767718.443754566 -224956.753267928 -1688.27670102756
 787369.389934756 -141587.508358933 -1556.04321255969
 798158.331395267 -54230.9416408559 -1510.95766615473
 799231.594751449 35028.9260428254 -1353.62156490286
 790440.850008395 123293.903643576 -1369.65774378746
 772428.531745278 208212.876273000 -1249.59991898518
 746167.980639860 288499.372574384 -1206.93496970146
 712376.220504991 364031.791372690 -987.587472176205
 671363.303732131 435052.409916933 -845.592896449794
 623198.284457750 501620.902066758 -607.337345604222
 568586.453416944 562769.241287546 -475.448610344760
 510608.820023567 615855.926489253 -332.749461525314
 459905.337790269 654589.181490001 -289.392931390934
 389968.452693307 -698515.096895640 -1124.86126449639
 439425.347074427 -668508.840598982 -1137.71240893588
 499425.270760155 -624958.176076505 -1295.02172722978
 559874.957727055 -571434.996911825 -1440.83812771627
 616854.702724983 -509399.011581285 -1709.59822300212
 668698.234590068 -439134.827315768 -1809.55643123824
 714332.184263008 -360174.747798208 -1918.74295758761
 752461.563914504 -271659.317189973 -1676.36965356160
 780973.908916709 -173429.501927178 -1400.51870659112
 797184.052217262 -67057.4558184142 -940.483720565782
 798837.547770036 43102.4619022897 -866.054685600815
 785599.034639167 151106.988032268 -913.751512435188
 759278.856409395 251980.491013560 -1204.30818577509
 722513.091101423 343472.458013075 -1226.28443803241
 677587.419260909 425292.561066879 -1235.62151015384
 625997.776774791 498122.278200781 -989.663116346040
 568971.025976975 562380.019835690 -827.579794381932
 508251.603864798 617802.534580867 -579.166917812943
 447825.479886180 662911.851721303 -465.201190344556
 397908.704515401 694023.428101818 -379.627023871434
 328784.970348249 -729314.062529259 -1200.61241421712
 374814.252594464 -706762.068882365 -1286.09532099844
 433345.573169571 -672465.288443853 -1431.80042706412
 495902.006939330 -627756.445939717 -1744.73341286324
 558886.229682030 -572400.643008075 -1919.93639169232
 620189.499105851 -505332.214353794 -2082.86704437947
 678020.947315903 -424599.374261880 -1722.31741180704
 729709.516574673 -327907.109774509 -974.053224994051
 770927.682392917 -213706.106531914 456.674123185661
 795584.362151351 -83921.0472092163 1667.49378916052
 798197.619487948 53630.2529374972 2087.15443440873
 777972.637983028 186432.862450662 1167.19671861027
 739516.045300842 305149.168234901 62.1944649294795
 689043.669655525 406470.230812411 -879.073919206643
 631379.600909585 491282.487856068 -1147.46730058538
 569644.752309466 561696.891417900 -1207.61655914762
 505907.906292640 619722.756387079 -946.343806390440
 442451.475815110 666510.379522131 -778.163413555739
 382985.933786450 702368.463019351 -562.741109405587
 336182.236538467 725934.746119421 -498.209319258351
 268599.735574299 -753559.850638545 -1316.64537004241
 309328.798899131 -737776.228485898 -1389.55127467623
 363162.644352800 -712818.421452221 -1670.86356268323
 423885.478085976 -678467.022463396 -1897.60308731624
 489045.723948447 -633111.103651245 -2147.16586248411
 557311.977366271 -573933.935648154 -1788.12625882911
 627071.198018316 -496770.901872535 -619.409898841563
 695107.134457018 -396006.098842259 2289.39002530089
 754363.384883959 -266256.093348505 6601.23482452269
 792716.504156077 -107145.357545218 10973.4404393475
 797011.647645885 68073.9537913936 11763.0919404421
 765263.388228188 233021.977747929 8526.69478508383
 709052.748519627 370442.161500437 4099.36576137369
 641427.383780002 478089.770678553 1040.43724932236
 570728.891917806 560596.222538495 -638.126823555585
 500995.650139961 623700.419224986 -1070.32677945645
 434265.779966315 671871.982501042 -1127.59938253343
 372046.766338485 708223.449832410 -865.311825747848
 316907.524132120 734553.675857003 -720.023203687237
 275213.227746115 751170.636576011 -594.995425959769
 209006.786390427 -772213.815214212 -1409.55136767483
 242780.295653405 -762269.833351208 -1558.59076306083
 288924.543309559 -746002.330111620 -1769.67268046384
 343449.566056637 -722521.983031961 -2092.75203288950
 405692.599736145 -689499.730464222 -1906.88465647304
 475985.618214122 -642990.722817984 -788.430926837724
 554760.938075767 -576395.240367685 2971.27359463545
 640371.226272412 -479381.461068768 10867.7203653941
 724741.255157549 -337894.970509395 24022.9468865880
 786399.088197850 -141951.062996358 37767.3112068355
 793895.510192868 89977.4246123268 40422.5426679038
 741910.466623193 297902.618069881 28686.0534418069
 659732.523228937 452244.888161499 15085.0563729162
 572498.385747868 558759.476392928 5783.23933332000
 490980.827816582 631614.068609166 1222.72299379822
 417984.973123620 682120.311013695 -665.992062356801
 353410.360387109 717704.729474089 -1019.04935054786
 296988.618360246 742830.217555528 -1014.12567232119
 249356.452052792 760145.211734987 -785.427282666217
 214575.933717803 770685.845430331 -704.501575120479
 149369.944328406 -785930.226531924 -1516.16450531129
 174737.608938324 -780681.840348603 -1622.39712622903
 210301.176154603 -771861.179493425 -1932.58868104882
 254077.956915230 -758577.936626491 -1976.32823163652
 306869.583440912 -738802.497811569 -1388.51942277524
 371205.127457850 -708663.401092840 1713.85545807963
 450888.341242057 -660753.724831547 10208.7635501537
 549841.697939557 -580329.462315912 29863.3952368183
 665221.737407813 -439536.462830464 65480.8210288804
 766990.573092239 -199679.919046077 108873.278252244
 781034.794819763 127463.917347536 117207.504261765
 692138.795568497 393492.546874060 78150.5164637874
 575070.924905964 554774.550633066 38969.5945280384
 470731.801461867 646656.721967136 15705.2547634297
 386135.846898448 700626.290474029 4680.68762243020
 318069.819415802 734051.311188611 512.366157908389
 262576.531697126 755680.374294259 -858.433687945415
 216838.875500135 770051.929922161 -962.961573741401
 179878.536009037 779514.533277826 -897.046207508049
 153615.238047964 785112.587738540 -763.684464343213
 89265.9371567038 -795002.603477367 -1566.18253819905
 104953.440650720 -793083.704834085 -1735.63308817646
 127403.302098557 -789787.817517461 -1897.87127853808
 155863.720326526 -784667.410074079 -1885.80317414195
 191843.595155573 -776656.891563294 -328.306299583268
 238728.220784101 -763532.504943315 5191.38673624838
 303073.980422258 -740054.688381184 21568.9729945254
 396025.714686093 -692316.131425490 62145.0518980595
 530735.940214399 -579963.150320633 148196.174157446
 687053.037204684 -302383.095856673 276627.163178081
 712914.820847334 197832.563230758 304326.691471124
 568173.827188193 533537.354964107 180323.023921586
 423189.802025381 674049.021704334 81045.0973295096
 320836.950722683 732195.260828977 30882.8604659359
 250500.489115351 759705.356252747 9862.89175938964
 199959.252344257 774604.676351130 1973.01213572597
 161667.606690057 783494.378022760 -380.202364425774
 131697.297679963 789084.827354647 -978.275259588348
 108231.311277884 792644.434493846 -885.282440540421
 91927.1047352280 794700.398738029 -826.837720780571
 28639.8701404686 -799485.550156875 -1616.45559662693
 33780.4240741288 -799284.631817573 -1720.54922015557
 41199.1831053522 -798936.018627438 -1966.07507241888
 50807.2234790263 -798383.350941117 -1628.18376902222
 63268.7325576331 -797494.144058932 397.079667370843
 80341.1937857832 -795911.996155635 8329.88335028500
 105734.487570642 -792337.890316875 31951.3021077135
 148117.147254380 -780209.536072224 96614.6495682244
 225885.847042360 -723435.975956116 256156.149249593
 352382.918472474 -450721.477064598 559174.774897373
 378720.642953250 306629.507985504 634467.508572067
 251987.535484956 687809.449446282 321590.489928760
 162250.325639584 772935.661592947 127457.031456577
 113398.222316921 790621.187909256 45375.9892930062
 84894.1063855448 795357.227688218 14137.5763521712
 66207.4221462465 797248.735048342 3321.40280115041
 52834.8932226885 798253.377376458 -139.875750651324
 42658.1777015721 798861.414085684 -849.093752621288
 34880.5255201149 799238.677077479 -941.277261222736
 29522.1465055986 799454.657478593 -832.767366657953
 -32180.8072128542 -799350.883829370 -1600.05260353256
 -37918.4930334535 -799098.905192009 -1768.50417137847
 -46178.8996650789 -798663.832281545 -1895.31819992375
 -56845.6681026029 -797975.941273590 -1722.54651501958
 -70641.5315877730 -796874.871485739 461.746164581347
 -89464.1946320253 -794940.231714535 8135.47051407887
 -117310.932454884 -790719.303220956 31640.6169398087
 -163430.083014238 -777320.926771205 95198.6594943178
 -247144.283647689 -718124.118401029 251430.812811433
 -381452.907790139 -444217.066165706 545128.312661872
 -409061.358922669 301815.343107790 617718.627937563
 -274901.794853496 681980.788480825 315168.537975159
 -178598.149824839 769625.678103143 125614.555221206
 -125587.727882206 788811.622688158 44765.4612112804
 -94398.5418693544 794286.521048886 14065.4816127530
 -73835.3402261249 796579.057995347 3185.41942886119
 -59053.3568635949 797817.458217485 -66.3817212509771
 -47770.2006011271 798571.945417339 -925.163172080299
 -39119.3860498824 799042.471435117 -895.811330880591
 -33144.5923833408 799312.649149205 -851.414013544655
 -92744.3626131855 -794604.287410424 -1584.18194819221
 -108986.771046998 -792539.605995865 -1690.16705286615
 -132194.838850718 -788999.770566627 -1971.45302837611
 -161562.464471513 -783514.061831906 -1812.45291237649
 -198592.961879910 -774958.455251738 -477.624962664406
 -246670.518010097 -761004.511404930 5078.30345421362
 -312294.358909329 -736232.523664982 20830.3742478364
 -406316.349807590 -686500.059108533 60205.4210434373
 -540971.937091581 -571842.048521399 142639.527558916
 -694763.729343429 -295578.686640627 264455.289969048
 -719924.254593380 193191.607606539 290492.806104675
 -577940.334516438 525281.264059674 173391.358974136
 -433515.853764210 667777.519701286 78340.2113648346
 -330238.319360775 728038.340614662 30047.0800714694
 -258636.722440711 756978.979538988 9479.99690072410
 -206875.001627551 772786.417255259 1971.54948751880
 -167501.868856067 782267.779560544 -494.965798045844
 -136597.544202451 788251.399240612 -917.885110866246
 -112352.141221870 792070.777829278 -937.694930021000
 -95478.7810353210 794281.522698036 -815.519771988195
 -152738.756847304 -785282.504115591 -1503.62451628973
 -178586.612046237 -779810.256635221 -1669.02497197281
 -214769.184348088 -770630.075549513 -1866.57788745564
 -259214.795459119 -756837.762238914 -2071.58496836375
 -312662.347435541 -736369.779500986 -1343.25491448186
 -377539.102529519 -705309.938042580 1455.11497051827
 -457451.796867971 -656233.224188349 9788.20788640596
 -555946.644823491 -574555.830716960 28441.6156124688
 -669645.081713829 -433217.575715687 62433.9381066347
 -768783.366098771 -195742.415836325 103232.953325978
 -782322.014449567 124966.313993846 111156.133768516
 -695914.047181518 387525.991766316 74345.4412924753
 -580823.147825318 548864.862603891 37307.2854694687
 -477187.954179089 641925.721817834 14933.9899232242
 -392479.899426659 697093.309932073 4521.70255400060
 -323921.204065062 731488.168108435 336.859623093779
 -267786.119476575 753850.084177894 -802.994806877565
 -221378.641395772 768759.005085044 -1043.66393801970
 -183793.094496234 778600.897134823 -861.043754627488
 -157043.018904881 784434.107365172 -788.299084933201
 -212241.634584197 -771330.956053211 -1429.95911410970
 -246402.464713244 -761106.767976444 -1520.89568646446
 -292999.173005485 -744411.253290160 -1835.91750208212
 -347938.194804651 -720371.393830882 -2016.81586509698
 -410467.432936029 -686667.604985657 -2021.57418093037
 -480812.105296466 -639389.630737223 -787.087096374002
 -559251.721395079 -572040.827783584 2608.34532044899
 -643963.189304120 -474558.481012514 10279.0525031026
 -726828.924484454 -333482.397759056 22565.5692957566
 -786908.254812009 -139660.742859132 35640.9232870435
 -794169.271906887 88606.1899858680 38001.4559599158
 -743550.762587085 293931.723792804 27136.7869202707
 -662971.358506224 447514.056740211 14147.3255540124
 -576780.575755334 554341.035708849 5493.95673314526
 -495712.898377821 627907.443141176 982.461077985759
 -422735.838680611 679186.287560438 -630.464011984511
 -357913.245355068 715469.671598333 -1121.52680647547
 -301096.419855661 741174.756288430 -962.595911880117
 -253018.829922019 758933.967761496 -839.215516601582
 -217852.565271472 769766.046121036 -702.882512690447
 -271698.729429784 -752448.054692252 -1313.55094548799
 -312711.186420136 -736348.869405115 -1434.02005567418
 -366826.796113689 -710939.864010842 -1615.98676065998
 -427725.899492747 -676052.261203582 -1973.58167883184
 -492886.659327256 -630125.751721034 -2068.35084498888
 -560907.007701651 -570420.603771828 -1914.02815096471
 -630116.995722588 -492901.780581993 -637.495600746654
 -697279.908445396 -392169.630398570 1926.20648664646
 -755457.682370765 -263145.791611047 6162.99475800707
 -792922.635767159 -105696.122747869 10100.6595888357
 -797093.508305990 67235.4778387025 11014.9687358437
 -766091.104132556 230311.208535020 7820.95851545706
 -710952.763421535 366785.280455981 3837.47626817478
 -644264.880968407 474259.584210943 780.983244674110
 -574190.037888082 557050.644180713 -616.610034854138
 -504763.298089653 620654.983118506 -1185.25601544233
 -438077.036886465 669393.282839131 -1068.94463135472
 -375709.792762711 706286.960275860 -938.811208772184
 -320305.643141449 733078.308949615 -698.512216768101
 -278336.094426280 750019.083802131 -626.475966733583
 -331760.457768677 -727965.310581189 -1226.88693459023
 -377962.617594643 -705083.440012811 -1265.82807222714
 -436605.198169715 -670353.400698384 -1489.66549830112
 -499136.366589057 -625188.022250219 -1680.59011494321
 -561919.545135616 -569422.898182029 -1996.95281878190
 -622832.861908837 -502070.926651530 -2002.68263142103
 -680087.806350342 -421280.406032382 -1842.59240518429
 -731062.430858917 -324879.649376847 -967.268023165726
 -771550.866928396 -211445.552264822 195.370070123891
 -795688.484304401 -82931.0215184103 1510.50166410759
 -798236.046747337 53068.0808579232 1729.87492041645
 -778433.756323664 184498.709377488 1055.10846491078
 -740677.079655393 302320.096482302 -151.446657841783
 -690936.648561384 403244.128130290 -849.001298900343
 -633886.459157369 488043.405918206 -1261.28374685828
 -572583.653900482 558700.856029554 -1145.75643836024
 -509084.396041632 617115.888262553 -1028.66945569935
 -445683.119634818 664353.822668580 -745.102826599951
 -386127.574784740 700646.212497286 -617.174257816759
 -339164.151885348 724546.351808864 -512.012068144116
 -392838.183872296 -696905.206495376 -1137.73966898972
 -442346.366828930 -666579.550112937 -1181.15387692400
 -502293.540528477 -622655.279810760 -1265.56989186104
 -562552.503727642 -568799.108681801 -1501.50343005249
 -619210.431272226 -506533.061251867 -1643.06496452800
 -670618.447633603 -436196.471583869 -1880.39125740095
 -715737.641451662 -357374.102644932 -1838.30572545861
 -753322.421937358 -269262.284812568 -1774.98843616118
 -781347.989479860 -171736.687477553 -1352.59381089117
 -797243.532143002 -66344.2780099075 -1089.60153001316
 -798859.145280488 42700.6895179983 -846.827264268486
 -785873.033370386 149674.528757530 -1053.97459173946
 -760009.089124775 249769.607983909 -1152.11774264783
 -723783.771469746 340786.292021453 -1324.88765549271
 -679387.414581273 422411.371115493 -1172.37404623417
 -628255.183723190 495271.924296872 -1070.10663723570
 -571575.827278981 559732.480318257 -790.029822265378
 -511071.578186409 615471.709981242 -645.122327981282
 -450720.061199430 660947.204917642 -467.700694720881
 -400767.632186006 692376.434678721 -421.537194231311
 -454426.359315308 -658403.722620435 -1105.44063141469
 -505014.840469768 -620450.517643445 -1079.84317176809
 -562913.753016084 -568442.387797599 -1165.51289606298
 -617508.676010883 -508607.406672967 -1241.34148637479
 -665733.987885666 -443617.187526287 -1431.19010383727
 -706950.450175950 -374457.986191685 -1509.16310878782
 -741189.002245189 -301058.272026051 -1667.27186461017
 -768276.191257943 -223045.033297066 -1614.64166290950
 -787601.472558546 -140289.971550459 -1626.13221554988
 -798194.548144595 -53697.0853757337 -1444.41489758786
 -799244.553984214 34728.7498940310 -1434.17480531963
 -790610.352308883 122202.969599615 -1305.77297407920
 -772897.451348396 206464.956535422 -1323.41300446619
 -747024.619534878 286274.170063504 -1147.76444591120
 -713658.085280840 361512.132387097 -1056.14876771880
 -673068.848961606 432409.145213029 -809.749118569886
 -625295.027738188 499004.685412971 -672.474386832761
 -571009.237196408 560310.830055170 -474.087820975618
 -513258.016192300 613649.784364302 -388.540847448740
 -462653.694200228 652649.564147644 -325.055032218934
 -513827.696769555 -613171.959413303 -1116.34302296438
 -563037.005913180 -568320.487317273 -1074.08927899990
 -615711.670340984 -510781.760038858 -1064.24504764073
 -662443.612002154 -448516.618054885 -1142.03596646489
 -701556.086583481 -384470.585825626 -1194.15768241042
 -733449.828478044 -319452.035898888 -1321.31206884597
 -758846.257849169 -253279.528916402 -1355.42620519455
 -778216.955128434 -185408.431766728 -1443.66908648679
 -791609.016532847 -115556.144056785 -1393.74123306073
 -798790.801274526 -43946.3610400573 -1404.68876872740
 -799490.930004022 28505.9489960129 -1289.85004606894
 -793645.655009891 100623.002436905 -1259.23171119051
 -781430.595511609 171362.195635488 -1105.57919514839
 -763048.157576809 240325.757410914 -1019.58006415606
 -738484.106695173 307637.039003773 -822.430315519109
 -707325.737409118 373751.006307224 -697.483321296785
 -668912.726234551 438811.465159863 -512.567766950969
 -622870.636313317 502027.892352447 -407.085744514779
 -570849.692280179 560473.495603194 -299.248994253188
 -522126.579397769 606121.905111903 -266.889309371008
 -562923.639175838 -568432.534843615 -1195.73755284539
 -608369.037438142 -519505.423703233 -1108.61603528365
 -654344.128940960 -460252.746877237 -1081.62491435334
 -693524.654854173 -398776.084229257 -1089.84227264111
 -725198.291742103 -337766.371255314 -1147.21547834686
 -750242.401934701 -277731.728829788 -1193.79247248848
 -769660.339911414 -218223.203294057 -1262.81888164174
 -784126.302408222 -158569.545224686 -1281.09283289924
 -793940.346099313 -98270.1851915397 -1302.89605317737
 -799131.461987929 -37246.8184794359 -1257.36796319198
 -799633.066036560 24196.5760970779 -1218.77239431907
 -795413.188320174 85537.1794654211 -1118.38072097533
 -786489.935011290 146398.507019149 -1029.20770517275
 -772822.743286088 206746.762072015 -885.343155577717
 -754137.016691996 266977.122312604 -759.089308343976
 -729810.762822560 327682.602588812 -602.020743449050
 -698901.075641789 389277.611241219 -477.339587388190
 -660584.006193607 451252.307953378 -354.016884939433
 -615585.459847786 510934.893017755 -276.985425677509
 -571111.132655830 560207.120341314 -237.645679472642
# End: Data Text
# End: Segment
