# OOMMF OVF 2.0
#
# Segment count: 1
#
# Begin: Segment
# Begin: Header
#
# Title: Oxs_TimeDriver::Magnetization
# Desc: Oxs vector field output
# Desc:  MIF source file: C:/Users/Victor H. González/Documents/GitHub/Intro-to-magnetism-in-python/vortex_dynamics/drive-2/vortex_dynamics.mif
# Desc:  Iteration: 3064, State id: 19299
# Desc:  Stage: 437, Stage iteration: 6
# Desc:  Stage simulation time: 1e-11 s
# Desc:  Total simulation time: 4.38e-09 s
# meshunit: m
# meshtype: rectangular
# xbase: -4.7499999999999995e-08
# ybase: -4.7499999999999995e-08
# zbase: 2.5000000000000001e-09
# xnodes: 20
# ynodes: 20
# znodes: 1
# xstepsize: 5.0000000000000001e-09
# ystepsize: 5.0000000000000001e-09
# zstepsize: 5.0000000000000001e-09
# xmin: -4.9999999999999998e-08
# ymin: -4.9999999999999998e-08
# zmin: 0
# xmax: 4.9999999999999998e-08
# ymax: 4.9999999999999998e-08
# zmax: 5.0000000000000001e-09
# valuedim: 3
# valuelabels: Magnetization_x Magnetization_y Magnetization_z
# valueunits: A/m A/m A/m
#
# End: Header
#
# Begin: Data Text
 565962.699196901 -565407.524167338 -744.803812982952
 611081.064801689 -516313.292463982 -718.516413321861
 656739.312323951 -456829.207875748 -741.943314150584
 695649.156428541 -395058.979656392 -808.550005132281
 727081.956514075 -333692.999952355 -900.163575387441
 751892.825429089 -273232.811293697 -1004.93820901309
 771051.473625570 -213256.668946410 -1103.70726108963
 785209.247566668 -153117.687210610 -1188.02317333783
 794647.073246741 -92382.2625373285 -1243.60318136937
 799397.479694572 -31016.9078181996 -1273.14074792478
 799413.090548084 30611.9896004865 -1271.51604797674
 794693.173860105 91984.8372428710 -1244.64354559447
 785284.086247680 152733.419778447 -1185.90426522391
 771153.224208158 212888.436227878 -1103.86313095114
 752020.615438023 272880.907529424 -1002.12880162235
 727236.548047993 333355.958869891 -898.815429062720
 695833.152993177 394734.816988535 -804.644393581462
 656956.755327428 456516.457838339 -738.479786140920
 611335.895553572 516011.544600570 -713.194676676433
 566253.806917325 565115.988076137 -739.034755069789
 516885.896848731 -610596.802154141 -717.522138942397
 565951.313547416 -565418.965214464 -710.260347385518
 618443.173261967 -507471.638417921 -760.030985361310
 664981.189657121 -444746.324725540 -850.908529289453
 703901.058831643 -380160.954449307 -973.698045565403
 735569.915068020 -314540.444000446 -1099.60666936446
 760689.407226786 -247689.593167671 -1221.13447021164
 779683.475424608 -179142.317427407 -1307.00288577765
 792585.936967122 -108653.907380658 -1364.16013132501
 799161.787050488 -36585.9224391250 -1381.44762824331
 799183.319133313 36112.3642654274 -1385.48411162569
 792649.005903731 108192.905775637 -1359.62481992922
 779784.216749737 178703.269428300 -1310.26853539308
 760823.446000001 247277.585232036 -1216.49434723730
 735733.850931690 314156.787696705 -1101.51591585407
 704093.183313076 379805.016406356 -968.878024920250
 665201.271066688 444417.085146698 -850.529819589024
 618691.283642683 507169.129239767 -754.911084515427
 566225.734094988 565144.156949186 -707.046522628850
 517179.436452871 610348.198306173 -712.274313820465
 457416.663631629 -656330.290109733 -738.997011884967
 508054.514808012 -617964.428769142 -758.128764378545
 565963.585003777 -565406.500341439 -842.508943887890
 620537.070178624 -504908.679941543 -984.608460114560
 668682.426997814 -439161.126094466 -1147.67231942151
 709759.238975681 -369107.146607904 -1317.95737162909
 743728.197476390 -294730.878893031 -1441.28604448393
 770380.137602420 -215666.783215830 -1510.69686325194
 789039.026679219 -131966.499348360 -1502.47357754862
 798752.050663703 -44642.6535896373 -1481.56707718997
 798783.747744974 44072.0889886009 -1474.89344498231
 789130.488702997 131418.407915054 -1507.93250571549
 770522.606324917 215157.272308469 -1503.76694854518
 743911.527913410 294267.816303164 -1446.00335548553
 709974.765653182 368692.435094501 -1311.65536508763
 668923.702759486 438793.523131786 -1150.62771238061
 620799.062585539 504586.529567307 -978.811595165094
 566241.243575807 565128.431673057 -842.489450353616
 508341.267945666 617728.571605051 -753.077801760840
 457704.985561435 656129.259362918 -735.663017669563
 395658.809215569 -695308.177913224 -802.755947813156
 445368.377455385 -664564.739009729 -846.184193840550
 505549.037006899 -620015.489661231 -981.713574095557
 565999.806501275 -565369.654275363 -1171.77859490337
 622807.568002464 -502104.366516435 -1392.25140961906
 674241.198798586 -430576.785465846 -1561.30091454138
 719216.976780286 -350320.272411984 -1626.97517467664
 756341.634337827 -260662.758234662 -1502.87613692934
 783507.255756724 -161600.821478204 -1246.86572600644
 798100.367529122 -55089.0610090809 -999.353300458145
 798147.900144265 54395.9339605887 -1005.91443784115
 783641.542875709 160948.446830440 -1236.82749332711
 756543.192340365 260077.150259954 -1507.99075235749
 719464.736370020 349811.198343577 -1618.21922125583
 674517.830612870 430143.280272663 -1566.72319900202
 623100.242843242 501741.136909744 -1385.24409797644
 566298.784768305 565070.177385647 -1175.15926329922
 505845.898447192 619773.325016745 -976.023484631944
 445655.831725681 664372.007240803 -845.957279593035
 395933.261517208 695151.935885732 -799.036085867728
 334298.965668457 -726803.555530875 -890.629371878231
 380820.520033877 -703544.454864052 -965.168986876181
 439868.677005611 -668217.214597699 -1140.65973352593
 502857.590603188 -622199.580189601 -1387.79848764239
 566063.728544684 -565304.589858313 -1604.96455272021
 627338.076187934 -496431.384205823 -1678.97001499536
 684708.344937524 -413730.050710650 -1388.34861641660
 735373.420659026 -315000.899247046 -604.699756961898
 774812.048331741 -199163.058020891 605.045236271460
 797042.018033545 -68712.5806321724 1613.30464641359
 797114.681848843 67864.1414563135 1625.51081688049
 775010.437406316 198389.655753269 605.310968912703
 735655.573593159 314341.422667384 -589.098264491407
 685034.315408127 413190.089455641 -1391.64972567028
 627679.242528448 495999.982307077 -1669.14657642197
 566401.915774406 564965.729467590 -1610.69371242547
 503181.269362851 621937.861079751 -1380.98440806550
 440170.500848283 668018.429155131 -1143.89338868904
 381096.509043206 703395.001403730 -960.622365232992
 334551.510464803 726687.343740355 -889.546685343868
 273842.817877731 -751670.891744496 -990.757699177945
 315220.198436504 -735278.890424856 -1086.18287831538
 369883.482458230 -709354.992595953 -1305.32898832186
 431433.766405648 -673693.181116603 -1550.13613222806
 497370.691392789 -626593.650196186 -1671.19037777224
 566168.156432609 -565200.763382232 -1309.85260329511
 636038.441058353 -485237.159689493 18.7758899203394
 703310.110159360 -381243.640384226 2859.30309888470
 760457.689586531 -248303.888720448 7020.05662504545
 795132.009276105 -87471.0182103515 10672.8064625847
 795247.126259342 86417.2997741041 10679.8162910656
 760754.089624284 247393.274268660 7055.70454022253
 703699.316432737 380524.648388300 2874.72104015921
 636451.975282310 484694.627060542 40.7171685820050
 566568.023012575 564799.924569092 -1311.68074238888
 497739.066768009 626301.094620959 -1661.41189957926
 431763.766695724 673481.721225642 -1555.93819500986
 370173.510334614 709203.696767227 -1299.51461975672
 315472.632714293 735170.614969005 -1088.52855167318
 274065.774752187 751589.631599884 -988.322333844126
 213859.539430958 -770884.506515389 -1083.97827681690
 248387.028554460 -760461.991169637 -1201.67890737824
 295544.208110924 -743405.408403609 -1421.19961624353
 351283.721223898 -718746.943120143 -1605.91361581661
 414829.124522010 -684043.075171577 -1367.02527957237
 486479.708043217 -635088.570468007 36.3743063601303
 566333.038494666 -565022.903042690 4001.06818368707
 652155.322671746 -463189.344631860 12209.2641227499
 734547.604493897 -315932.969940405 25023.4936991730
 790723.791740684 -115618.810243280 37258.2325555573
 790916.485855119 114274.430917074 37315.7720162439
 734998.095357677 314877.078540170 25104.2870959434
 652678.811927353 462449.433712036 12283.7176993301
 566830.456827657 564523.685352154 4030.12269927867
 486916.614970394 634753.658027469 60.7167224560954
 415200.805929447 683817.530924381 -1369.36336346838
 351595.275289327 718594.608100758 -1597.37370115113
 295803.716365185 743302.177020288 -1426.54177873875
 248603.407468789 760391.288400288 -1197.63093544846
 214045.203345717 770832.974458943 -1084.62503661529
 153705.900351864 -785094.354851471 -1161.97133145564
 179828.218748773 -779525.607231288 -1280.39538260991
 216507.929623976 -770144.221911273 -1481.17069234052
 261678.745291219 -755990.793688476 -1467.69243452386
 316252.376511370 -734836.117813503 -560.631510553544
 382740.554647190 -702496.386936379 2914.47588684668
 464959.126585928 -650893.656910463 12266.1321604029
 566170.011369386 -564243.756386538 32870.9842383688
 681358.477390887 -413546.422870114 68774.8603699557
 775681.192503003 -162940.649617330 108485.170873266
 776030.576539957 161150.195302684 108660.751097023
 682041.773910395 412374.357683084 69039.1755934748
 566833.471148451 563567.495815386 33037.7609134400
 465502.535202476 650503.356526632 12360.1321859748
 383167.253435605 702263.624410325 2942.40117747422
 316585.828759429 734692.535182955 -540.162149609809
 261941.197351536 755899.889277695 -1471.91032767073
 216716.227818165 770085.645788674 -1474.70353145919
 179995.935355949 779486.891328764 -1284.32937991912
 153846.438626670 785066.829486683 -1160.41441641823
 92936.0474820310 -794582.547776202 -1210.72205524436
 109317.022810469 -792494.807893721 -1329.65610167502
 132778.598458142 -788902.850157460 -1461.78142291739
 162634.933474269 -783293.338682643 -1193.31019372010
 200464.859688445 -774476.192490040 683.590683743411
 249994.952479299 -759902.277685155 7145.07549205400
 318117.109361833 -733597.521184217 25222.6414882487
 416356.516176975 -679619.081013998 69030.1105218749
 556107.229134399 -552862.912827530 158389.864967173
 706428.508688883 -249491.063996003 280558.320314587
 707059.629516627 246991.169663649 281179.733295259
 557041.848361181 551721.175939335 159085.270199585
 417059.422927092 679148.029819386 69421.8361912688
 318597.579351260 733383.322961491 25386.6900851650
 250328.395849447 759791.803683844 7218.67621476986
 200705.139638632 774413.946413337 697.512121391686
 162813.728662843 783256.214744668 -1179.75538040965
 132915.286059446 788879.822508889 -1467.09579774226
 109424.091026748 792480.038154491 -1325.68081623824
 93024.3013921743 794572.218036998 -1212.30122635873
 31523.7024594276 -799377.717245428 -1233.43209642205
 37185.7497679587 -799134.173488183 -1338.94643433583
 45399.4020708153 -798709.491012595 -1429.42576376985
 56037.4579605692 -798034.426783145 -925.729018037426
 69955.1449931725 -796933.669306457 1733.32476195264
 89108.6196148525 -794947.122095254 10896.1912065981
 117901.195365833 -790365.295497636 37709.5187484896
 166272.856049244 -774846.066760661 109393.373504805
 254582.669017095 -704015.581078369 282045.610203421
 388844.297207071 -382158.374490779 585452.892499562
 389520.025481103 378779.890753594 587196.682645515
 255260.095347986 703176.167438327 283523.475694134
 166652.179131259 774670.960954434 110054.320427396
 118116.121541227 790320.453288939 37975.8205339150
 89242.7027628922 794930.898375061 10982.1132844836
 70045.8578052617 796925.616731241 1771.77929089782
 56102.6557186747 798029.846581190 -925.195608856031
 45448.0084061037 798706.740580611 -1421.64799228532
 37223.3317622903 799132.416534331 -1343.28571654383
 31554.3538330255 799376.509837983 -1232.18238268195
 -30172.5452108996 -799429.869116944 -1225.51179575837
 -35586.9637824958 -799206.971458223 -1335.95707954834
 -43434.8929827515 -798818.761018130 -1413.19391337974
 -53588.0764823130 -798202.654361301 -916.858495180324
 -66860.0983226110 -797199.204549203 1776.37788985403
 -85120.3196277965 -795382.940064220 10977.6974480334
 -112602.861747480 -791124.682082235 37978.0584885650
 -158923.181590467 -776268.066943885 110232.983250789
 -243953.028587211 -706650.934566003 284835.700922694
 -374136.199387540 -384971.825904764 593143.150990887
 -374791.189308852 381577.425620112 594920.358261157
 -244605.697304491 705821.613945941 286328.311790732
 -159285.310883705 776097.582564312 110908.665461779
 -112807.086838858 791083.275991600 38233.6449390831
 -85247.1871302768 795367.942788718 11079.3804167218
 -66945.7887408900 797191.962862722 1798.80986767104
 -53649.6120886866 798198.538953186 -900.852780851401
 -43480.7530287351 798816.257443794 -1418.08305264883
 -35622.4238365814 799205.398522993 -1331.87526102994
 -30201.4622607076 799428.774560422 -1227.22538150315
 -91617.9471573968 -794735.633893797 -1193.30552966940
 -107771.062236651 -792706.563648117 -1304.64308403962
 -130906.118873589 -789215.758173281 -1440.51811077161
 -160350.617034338 -783764.234638553 -1141.97992618637
 -197674.901747501 -775192.915859601 759.223422498536
 -246595.684210155 -761010.280088412 7343.16884461584
 -314025.978567325 -735341.609743007 25698.2833161777
 -411640.059421377 -682355.295776963 70311.5339378916
 -551332.047067335 -556692.854216985 161635.515714487
 -702752.234838499 -252273.271520946 287223.768002606
 -703391.194472293 249754.646704965 287860.111839275
 -552267.120084580 555555.497433815 162354.911673620
 -412339.356375314 681892.722913286 70700.5630946229
 -314501.042804957 735132.225666326 25878.6564850248
 -246924.489956665 760903.083328339 7402.29971471337
 -197911.326671101 775132.558299449 789.835069717119
 -160526.351970130 783728.258242984 -1143.48352933644
 -131040.378871799 789193.490184369 -1433.23262233217
 -107876.182731886 792692.258164696 -1308.83343148284
 -91704.5740855689 794725.644760027 -1191.91129866191
 -152446.271794729 -785339.962676885 -1130.14979374165
 -178374.734555799 -779859.530813150 -1251.50790692495
 -214792.359742767 -770624.542772612 -1433.97093332975
 -259662.528731465 -756685.778697355 -1415.44691118014
 -313919.794272538 -735835.687583230 -451.267993585533
 -380118.700922891 -703917.704821135 3104.52058119656
 -462170.902225395 -652868.110747969 12699.8860050757
 -563533.576661816 -566822.139685533 33801.9220911327
 -679454.833264872 -416344.176003750 70701.1786377231
 -774912.456907572 -164453.651084033 111649.813141815
 -775265.414741114 162650.848383669 111840.235274979
 -680144.307333133 415172.246491996 70962.8560947342
 -564198.186360972 566149.600796415 33985.8209412387
 -462713.370515193 652482.163480133 12781.3569997193
 -380543.234216601 703688.089702968 3149.49236493955
 -314250.913740368 735694.341284296 -446.559747538461
 -259922.793340946 756596.437189479 -1404.54050400593
 -214998.727757239 770566.982875426 -1439.43219095475
 -178540.799623492 779821.535180188 -1247.45301225568
 -152585.366913637 785312.947804361 -1131.28893558699
 -212672.230972436 -771212.961227994 -1044.32138600366
 -247047.127719747 -760898.405065901 -1154.92579408556
 -294015.762566285 -744011.315923551 -1375.91434032329
 -349569.577258996 -719582.355175893 -1531.26564705618
 -412967.312387603 -685168.865177010 -1274.79073134588
 -484558.050363110 -636555.929235869 211.619848901244
 -564513.984453061 -566838.163542998 4296.24349033970
 -650692.434437925 -465226.919872232 12777.6676840009
 -733720.499941359 -317771.895626271 25985.5789985031
 -790536.175582164 -116442.573112341 38648.1857647031
 -790731.761830674 115091.152665201 38695.0566656063
 -734174.451118468 316713.696955891 26082.7430579766
 -651218.578426927 464488.436394901 12839.6093021627
 -565012.069094370 566341.332717812 4342.42249346556
 -484994.493223270 636223.461539863 220.293751831645
 -413337.903879790 684945.390116767 -1260.86242373893
 -349879.770897214 719431.570283578 -1536.74858665055
 -294273.891414495 743909.269085221 -1369.74481660779
 -247262.189997030 760828.540585417 -1158.11421561126
 -212856.676653422 771162.076913187 -1042.27395706691
 -272730.554123006 -752075.237854376 -938.857839257861
 -313998.873858597 -735801.352707898 -1037.57831587590
 -368545.928774252 -710050.953297651 -1241.81521155581
 -430011.014379976 -674602.342132544 -1485.76619612041
 -495924.528125357 -627739.115453402 -1570.13802608302
 -564792.788137567 -566575.417678349 -1184.29320576438
 -634860.863832940 -486776.776111663 231.973338663871
 -702472.714970201 -382781.940895899 3173.39666011241
 -760052.426343145 -249527.406953474 7508.82074456240
 -795069.467037239 -87961.3857489011 11284.3786827065
 -795185.502527937 86903.1905417693 11307.1677733332
 -760351.286201977 248614.601954916 7530.02428932680
 -702863.954887592 382062.800191684 3205.87421173891
 -635275.620882271 486235.363532988 238.249007232237
 -565193.039687399 566176.174008334 -1169.56154267311
 -496292.613467945 627448.133775649 -1575.19478496826
 -430340.349895822 674392.317800796 -1478.15520532545
 -368835.055839654 709900.801937605 -1246.19103839065
 -314250.334047945 735693.998982375 -1033.15636624929
 -272952.522119921 751994.707238437 -938.591365944854
 -333256.556201006 -727282.185019543 -831.325594778703
 -379712.941291588 -704142.931612997 -902.261130293464
 -438711.785619061 -668977.429047453 -1081.01063567262
 -501696.331827202 -623136.483188888 -1309.17917586225
 -564960.021235172 -566407.846370003 -1525.11522491477
 -626365.133952306 -497658.797044404 -1562.27181566781
 -683942.668439888 -414995.010194854 -1252.11848455948
 -734876.700398828 -316158.305269249 -401.522363399304
 -774594.065482909 -200008.265625717 852.877512440787
 -797013.890204569 -69030.0985104654 1924.66116889359
 -797087.181957354 68178.6967284296 1920.85181545338
 -774793.836466974 199232.914813151 869.843574167086
 -735160.357560641 315498.157406428 -401.677058788405
 -684269.849981125 414455.349709738 -1239.15446494280
 -626706.966549217 497228.239032837 -1567.28650304547
 -565298.434640112 566070.118375079 -1516.86395642432
 -502019.806647527 622875.900451019 -1313.91434787440
 -439013.133805546 668779.719028970 -1075.06361001802
 -379988.258460499 703994.394541360 -903.264359554298
 -333508.339526099 727166.763321437 -828.122677043673
 -394677.341673329 -695865.835159460 -731.729118126508
 -444366.372122586 -665235.235202481 -780.494530560186
 -504558.507186066 -620821.944737194 -908.712769015725
 -565065.989559893 -566303.108896030 -1102.85873509052
 -621977.419909273 -503132.573480796 -1304.84696259111
 -673558.186789023 -431644.754359319 -1474.80289127808
 -718715.858249325 -351347.740464886 -1510.08978370556
 -756038.163314767 -261542.337879720 -1378.80674621094
 -783382.275058744 -162206.768883500 -1084.09047609344
 -798085.414009743 -55307.9971081434 -835.105252623711
 -798133.298625862 54612.7735090608 -826.192621450378
 -783517.389950913 161552.819492828 -1089.10900641334
 -756240.800595953 260955.892635588 -1368.79974999300
 -718964.570104097 350838.496474282 -1515.36355250582
 -673835.583905977 431211.611971460 -1466.82073442127
 -622270.520334843 502770.012040024 -1309.39508115266
 -565365.107859634 566004.499058936 -1096.29371405585
 -504855.208320208 620580.687811252 -910.245940737375
 -444653.441627093 665043.393657888 -775.500600565470
 -394951.250025879 695710.412513091 -729.399658139886
 -456487.267994145 -656977.123591150 -658.207522318144
 -507151.321696589 -618705.967735305 -679.992736969396
 -565125.681218754 -566244.090617500 -770.887669938482
 -619797.782098689 -505816.062126089 -905.870190518769
 -668066.220306116 -440098.138449049 -1074.15994194252
 -709282.371777989 -370022.979634918 -1229.48244713059
 -743397.779537603 -295563.702437804 -1356.16364018136
 -770190.202983412 -216344.814108175 -1404.50591665488
 -788964.078812075 -132414.971621885 -1399.15495573679
 -798743.413759754 -44800.7942578994 -1359.34148616246
 -798775.286819729 44228.6900707102 -1365.33537616080
 -789056.094983395 131865.618174783 -1392.01757790984
 -770333.366867552 215834.467048040 -1409.51218160055
 -743581.879900963 295100.266099613 -1349.38166892608
 -709498.554540041 369608.278946535 -1233.38549273597
 -668308.024373869 439730.876835949 -1067.94877330305
 -620060.088081444 505494.474712373 -907.305734144579
 -565403.440132977 565966.751947790 -765.229026648082
 -507437.940724664 618470.918035567 -678.127830442682
 -456775.270010122 656776.922233724 -653.550593613078
 -516001.589978904 -611344.396463042 -622.938585830973
 -565142.471736700 -566227.512304741 -625.258761615425
 -617742.977393974 -508323.867280128 -678.110464983849
 -664402.185734592 -445610.966749184 -775.824693228348
 -703445.643533262 -381003.185830152 -893.857566059805
 -735235.103426270 -315322.522691803 -1024.38910519782
 -760467.697912422 -248369.866108591 -1135.79970996919
 -779560.844086218 -179675.789008472 -1225.23947314761
 -792538.999560781 -108996.882916972 -1270.31081965321
 -799156.478008197 -36704.9172683131 -1293.33130324736
 -799178.147947116 36230.1870690520 -1288.94870312992
 -792602.397503682 108534.863197554 -1273.94744894860
 -779662.088784380 179235.983061261 -1220.52793513112
 -760602.285449118 247957.390262084 -1138.41292812788
 -735399.605913435 314938.692663236 -1019.55183139611
 -703638.267592328 380647.327657589 -894.609860566679
 -664622.679751610 445282.044981556 -770.698924566928
 -617991.356802831 508021.875203534 -676.189087009412
 -565416.987877659 565953.395286258 -619.825226569835
 -516295.039473829 611096.596386296 -618.142218171803
 -565114.794498229 -566255.122022185 -637.042279825682
 -610354.997373348 -517171.528922318 -621.975508517504
 -656147.412417191 -457679.083809178 -655.302843747766
 -695183.921543978 -395877.238756395 -725.989908658189
 -726731.349708372 -334456.080609596 -821.884613120987
 -751644.292043635 -273916.050857428 -924.835604046236
 -770891.917027775 -213833.117175350 -1024.82208915623
 -785123.241631835 -153558.704910145 -1104.35313110775
 -794614.780089008 -92660.6941063401 -1160.61700438822
 -799393.896572944 -31112.5694399436 -1185.80975294767
 -799409.587788087 30706.7032586143 -1187.15098780315
 -794661.125051424 92262.4179401907 -1158.69229535562
 -785198.433934252 153173.752464814 -1104.94481589316
 -770994.101024734 213464.402367391 -1022.30474656622
 -751772.541259944 273563.871923845 -924.221618367923
 -726886.403345675 334118.970992210 -818.446269032847
 -695368.346536300 395553.206504943 -723.504686436234
 -656365.222645974 457366.670513690 -650.541408367628
 -610610.090251391 516870.328851113 -617.119543627352
 -565406.028919587 565964.331497618 -630.819973804584
# End: Data Text
# End: Segment
