# OOMMF OVF 2.0
#
# Segment count: 1
#
# Begin: Segment
# Begin: Header
#
# Title: Oxs_TimeDriver::Magnetization
# Desc: Oxs vector field output
# Desc:  MIF source file: C:/Users/Victor H. González/Documents/GitHub/Intro-to-magnetism-in-python/vortex_dynamics/drive-2/vortex_dynamics.mif
# Desc:  Iteration: 3337, State id: 21015
# Desc:  Stage: 476, Stage iteration: 6
# Desc:  Stage simulation time: 1e-11 s
# Desc:  Total simulation time: 4.77e-09 s
# meshunit: m
# meshtype: rectangular
# xbase: -4.7499999999999995e-08
# ybase: -4.7499999999999995e-08
# zbase: 2.5000000000000001e-09
# xnodes: 20
# ynodes: 20
# znodes: 1
# xstepsize: 5.0000000000000001e-09
# ystepsize: 5.0000000000000001e-09
# zstepsize: 5.0000000000000001e-09
# xmin: -4.9999999999999998e-08
# ymin: -4.9999999999999998e-08
# zmin: 0
# xmax: 4.9999999999999998e-08
# ymax: 4.9999999999999998e-08
# zmax: 5.0000000000000001e-09
# valuedim: 3
# valuelabels: Magnetization_x Magnetization_y Magnetization_z
# valueunits: A/m A/m A/m
#
# End: Header
#
# Begin: Data Text
 565563.553944176 -565806.877452431 -666.241370006649
 610742.897197260 -516713.356860519 -648.355637103008
 656470.501650080 -457215.506238666 -679.204102643593
 695446.253340610 -395416.169652738 -749.327476005890
 726940.165601580 -334001.920429831 -844.265558227857
 751804.071282074 -273477.127095895 -948.345439674741
 771008.066936551 -213413.828755199 -1048.05286568789
 785198.947237474 -153170.942374636 -1129.45527901670
 794655.432635341 -92311.0947070215 -1185.40167450253
 799405.399541473 -30814.5685774917 -1212.24886912579
 799400.183254064 30949.5847378927 -1212.52543108937
 794640.012674855 92443.7468041702 -1184.87674992030
 785173.866426417 153299.457685214 -1129.49298779422
 770973.875958742 213537.316342545 -1047.43418840725
 751760.990697631 273595.529146909 -948.312258139248
 726887.872620980 334115.711384014 -843.826344546434
 695383.808905847 395525.974719479 -749.422312104923
 656396.508076992 457321.728059334 -679.138540855166
 610656.019454664 516816.026428863 -648.637083512182
 565464.229557173 565906.141372437 -666.519522306326
 516462.463595410 -610955.074277365 -648.777079217862
 565568.694352262 -565801.759814776 -648.505343985806
 618118.016800880 -507867.724613576 -701.143334437174
 664723.718494595 -445131.152542781 -796.935790879878
 703709.798263911 -380515.017351731 -917.277044895238
 735445.966109199 -314830.329425412 -1046.23496090525
 760623.112221550 -247893.388387816 -1161.52830834738
 779665.580327706 -179220.595663233 -1249.37679596027
 792594.922899020 -108589.139250650 -1298.85776721192
 799172.627704675 -36350.6529153534 -1319.53030769810
 799165.447294248 36508.2104106081 -1318.49292756045
 792573.868823391 108742.694209299 -1299.58240383512
 779631.881439296 179367.142017473 -1248.12175156442
 760578.143583926 248031.323380614 -1161.94857420634
 735390.784824932 314959.206030514 -1045.05081151193
 703644.892687326 380635.026021715 -917.584050862786
 664649.126481952 445242.523523234 -796.186811976501
 618033.688718467 507970.341230037 -701.455404183868
 565475.256787041 565895.143669870 -648.330538942555
 516362.433495519 611039.619075217 -648.995377158333
 456958.371619650 -656649.513512983 -680.448293758582
 507612.529702517 -618327.604883679 -701.945741378501
 565563.430849897 -565806.839978801 -790.897273527834
 620192.902105021 -505331.476511366 -928.991601117133
 668413.740246133 -439570.099088571 -1095.37091299667
 709567.874250517 -369475.105516161 -1256.27840231544
 743620.748833533 -295002.160063715 -1381.10897429891
 770341.383905825 -215805.671731639 -1436.76390360998
 789048.394490918 -131911.287116388 -1429.50432064896
 798767.003948719 -44377.0525124325 -1396.64351054921
 798756.471731656 44566.1790739161 -1398.05205448772
 789017.966363700 132093.186598115 -1427.86891803655
 770293.875489526 215975.179769497 -1437.74366964118
 743559.427105320 295156.697522301 -1379.22823961574
 709495.511697420 369614.040963068 -1256.82304533322
 668332.436998662 439693.708605850 -1093.74030860512
 620104.298362218 505440.199646799 -929.372749021369
 565469.272140184 565900.943831323 -789.959535803282
 507515.088838031 618407.585312532 -702.160699832601
 456860.315309588 656717.739663735 -680.225094626920
 395153.787836256 -695595.370026467 -751.768849340889
 444859.400968921 -664905.613669412 -798.924575338504
 505051.476323162 -620420.938535635 -930.209845845749
 565547.526769843 -565822.175608255 -1122.74416218487
 622419.267449852 -502585.796361585 -1331.46640252377
 673949.934174396 -431032.755147091 -1500.07221020065
 719029.625814979 -350705.017219625 -1545.34700127389
 756265.403438933 -260884.339865420 -1414.48730334550
 783508.540204552 -161595.435418523 -1132.55394186227
 798122.058481715 -54775.9004884634 -883.453784188529
 798106.339342517 55004.4859326451 -881.832508708988
 783464.068393502 161810.897401922 -1134.46828399534
 756198.485926049 261078.253498071 -1412.59815509169
 718947.074672709 350874.211830099 -1546.38034130599
 673857.407656503 431177.400922610 -1497.69158393474
 622320.961829674 502707.515856467 -1331.90420458755
 565446.746845212 565922.892478835 -1120.82583619303
 504951.087678266 620502.645710745 -930.439951269349
 444761.997654019 664970.772843407 -797.939126452338
 395060.686079576 695648.251237086 -751.575092668876
 333737.338318720 -727061.668250792 -848.276082151804
 380226.803166800 -703865.562562968 -920.864525408845
 439261.750774584 -668616.413203590 -1098.31744728281
 502257.042595242 -622684.579358139 -1333.33906431484
 565519.329763679 -565849.352629838 -1548.48055610886
 626881.347491553 -497008.274539395 -1597.24968233932
 684392.392547254 -414252.807686976 -1290.09569579312
 735212.026571287 -315377.654914901 -459.091840646145
 774793.264019210 -199235.497731089 783.884113527945
 797070.515842786 -68375.6900003269 1832.42765036046
 797046.622692670 68653.7250041748 1829.56204066244
 774727.943339049 199489.346242243 783.929517866958
 735118.848786415 315594.779164042 -462.085852576790
 684284.340461879 414431.275094226 -1288.26333734045
 626767.743254565 497151.528149697 -1598.14705245969
 565406.238915707 565962.362465358 -1545.72566288452
 502148.340581997 622772.242272244 -1333.53138301905
 439160.068443004 668683.207793245 -1096.31221494538
 380133.581770795 703915.912766605 -920.741040971937
 333651.937400408 727100.864136959 -847.372551521976
 273210.959438296 -751900.831855242 -954.305088442921
 314534.239301027 -735572.638065098 -1051.87322319875
 369136.394928431 -709744.130188805 -1261.58700737555
 430660.220828132 -674188.037477143 -1504.76542444415
 496599.237555071 -627205.417356410 -1600.53069121909
 565474.938387766 -565894.522113436 -1218.15325681179
 635486.405083214 -485959.873060077 175.299311516572
 702985.928621598 -381839.247051163 3094.11884535619
 760370.447284030 -248560.536130580 7378.53478431776
 795165.707059281 -87109.5606102548 11109.5799741367
 795128.125426855 87452.2532967358 11107.0945120523
 760273.494801350 248857.207559277 7369.08056279388
 702858.244989125 382074.257066646 3090.23264117917
 635350.136222771 486138.020684985 171.015178367425
 565342.551663330 566026.783734677 -1216.29510050122
 496476.646535074 627302.459663460 -1601.10757294176
 430549.932129291 674258.481974152 -1501.80870086720
 369039.070834293 709794.739993393 -1261.45767797115
 314449.313511826 735608.949590262 -1050.00697683959
 273135.824569648 751928.129553330 -953.584338096011
 213151.372691647 -771080.654972827 -1056.33628308272
 247589.396689659 -760722.105927086 -1169.70111973228
 294648.787131390 -743760.822714213 -1389.54578057792
 350285.547450432 -719234.050671824 -1554.22056119620
 413776.121786474 -684680.679848279 -1299.10809561124
 485420.157588313 -635898.767451177 167.812430857807
 565393.865354604 -565961.016519887 4231.40628587260
 651477.482149736 -464130.464817113 12649.1849733883
 734271.084584691 -316516.588397963 25753.1281932000
 790721.351733502 -115307.489701597 38261.2954754449
 790658.844292191 115741.008309037 38244.0967751059
 734124.871188555 316857.568220616 25728.4854529997
 651307.006831504 464370.221771681 12628.5384707306
 565231.155728562 566123.571086860 4224.08020935255
 485276.423524742 636008.463859522 163.309785051159
 413653.195784141 684754.957562150 -1296.80824534852
 350181.941938089 719284.499718488 -1554.35040884601
 294562.146178464 743795.146017255 -1386.65060775649
 247516.895055169 760745.699802993 -1169.14220850786
 213089.060652736 771097.879449833 -1054.76921890460
 152914.994133295 -785248.816668233 -1140.39043929781
 178922.782071315 -779733.960455194 -1260.54302507222
 215439.670407777 -770443.799561747 -1449.18302727574
 260443.993659969 -756417.135714758 -1429.32275164943
 314834.145354887 -735444.921547559 -477.795523714114
 381191.262591249 -703337.609600073 3070.54492647870
 463363.574370934 -652023.630448825 12624.7092056151
 564768.660831972 -565601.458785149 33635.5401647317
 680481.546703614 -414733.678310917 70291.1137381894
 775379.385167405 -162810.172426118 110813.612936291
 775266.948095263 163382.529838788 110757.880688168
 680261.527820567 415108.237100635 70209.7233895110
 564554.556132859 565818.157619676 33585.1999771816
 463187.304234147 652149.360820177 12598.9038467083
 381052.032972689 703413.078858835 3064.09166224154
 314724.602236883 735491.803813737 -480.905033470022
 260357.303651080 756446.984137206 -1426.40291144834
 215370.487631747 770463.142488002 -1448.83566216441
 178866.893843593 779746.786920588 -1258.00388066854
 152868.044489198 785257.959646827 -1139.20382315622
 92070.7495131116 -794683.294790132 -1199.19372590714
 108300.905858022 -792634.334931692 -1313.34600361966
 131559.648665085 -789107.068881044 -1446.61158838251
 161146.558623885 -783600.952129935 -1155.19034718376
 198672.633245035 -774937.817882689 750.476316042952
 247828.176886718 -760609.979102372 7324.91849068300
 315572.626599259 -734680.281133353 25667.1357004148
 413517.940936440 -681232.441902732 70180.2865691493
 553391.951288570 -554794.544573790 161122.194499049
 704289.674850318 -249786.895002013 285626.611128035
 704088.162628873 250579.475083258 285429.125901503
 553094.362535436 555154.563800106 160903.811090455
 413293.739245882 681380.786971686 70060.7468273297
 315418.646827322 734748.087965644 25618.8302709589
 247720.519061645 760645.230456982 7306.01251532524
 198594.521095408 774957.841464123 748.427787391705
 161087.993421822 783612.992013962 -1156.34002675018
 131514.657923229 789114.574192749 -1443.45001094256
 108265.482065847 792639.175603885 -1312.51325414154
 92041.4918259270 794686.687017478 -1197.18822396594
 30594.6824512362 -799413.819748117 -1228.90253154262
 36091.1314050009 -799184.360275855 -1337.35723693076
 44048.7822045238 -798785.135318686 -1418.58387365253
 54366.4973209965 -798150.015687976 -914.563464636334
 67838.1372931529 -797116.562405319 1781.31067561345
 86403.7014002885 -795244.049522554 11013.7224997277
 114322.701413341 -790873.741158838 38066.3300960213
 161373.350047298 -775735.938784807 110419.179367387
 247587.056559458 -705328.538007020 284977.723510285
 379026.600493745 -381918.224972071 592011.237690922
 378817.556291813 382980.165147042 591458.749321577
 247378.023732768 705588.702964183 284514.842536189
 161256.238200219 775789.247562226 110215.557016011
 114255.969470114 790887.157191252 37987.8668838401
 86361.7890881280 795248.928495705 10990.1370297244
 67809.5031460849 797119.016836968 1773.21176007941
 54345.8031215694 798151.427082867 -912.758815247694
 44033.2157922690 798785.993946946 -1418.37272231299
 36079.0671443947 799184.909689183 -1334.55576259082
 30584.7986539828 799414.200122459 -1227.49088148776
 -31139.6670412793 -799392.771917590 -1231.80455863531
 -36735.9064375330 -799154.978420010 -1339.27022145448
 -44840.8674480518 -798741.052481558 -1423.96880541134
 -55353.7901624178 -798082.146485765 -919.442944728588
 -69085.2595767648 -797009.479291508 1765.45424443216
 -88010.1757804526 -795068.334878070 10979.6098886647
 -116456.097068366 -790567.564242664 37959.2389679234
 -164331.842196900 -775162.876235656 110079.793541950
 -251864.207362798 -704267.073557195 283852.620478823
 -384939.279783420 -380791.708995384 588913.767236083
 -384727.873494014 381852.050120446 588365.086638887
 -251651.781164887 704528.005332536 283393.138129169
 -164212.577227463 775217.213565268 109874.934686744
 -116387.923449872 790581.218857584 37883.8707721712
 -87967.3158407320 795073.450472006 10952.6114838893
 -69055.9509122790 797012.028881215 1761.09688830826
 -55332.6035772135 798083.613694372 -921.158997739480
 -44824.9298230080 798741.952621557 -1420.84083010325
 -36723.5542958312 799155.547605162 -1338.39148799900
 -31129.5475959221 799393.169278316 -1229.70632366583
 -92602.4299417760 -794621.503987000 -1206.38729924312
 -108924.409174885 -792548.877851002 -1322.61219539650
 -132314.658185467 -788980.805090568 -1456.16891257507
 -162067.337703674 -783411.002516195 -1174.38759144034
 -199796.802035623 -774648.772850394 718.761237601148
 -249197.236596672 -760163.286720460 7246.70924821264
 -317219.458704797 -733977.425852326 25474.5629644550
 -415415.006061763 -680130.245006444 69665.0742207356
 -555310.361194474 -553253.842776813 159814.230288642
 -705764.167360284 -248673.893986940 282945.638806499
 -705563.065014891 249464.034734416 282751.581181819
 -555013.139334291 553614.850333241 159596.405525931
 -415190.130952520 680279.439168386 69548.8303595136
 -317064.815110420 734046.011369503 25423.5365659393
 -249088.933312583 760198.927052637 7231.50117325907
 -199718.173978333 774669.053573636 713.034422690426
 -162008.357686507 783423.205175280 -1172.02073908055
 -132269.337236518 788988.404788505 -1455.86273489600
 -108888.720520468 792553.786468777 -1319.88538073068
 -92572.9503255782 794624.940920956 -1205.04538729787
 -153423.145935675 -785149.673153499 -1152.83917078638
 -179509.048546489 -779599.180113451 -1272.73578156196
 -216131.475539877 -770249.981033653 -1466.96919321725
 -261256.754227148 -756136.761197576 -1451.46007021142
 -315774.033294609 -735041.828300556 -520.139818239983
 -382247.140384884 -702764.658975589 2992.95213816299
 -464485.631210042 -651228.110760621 12451.7530717700
 -565828.529635486 -564563.408209840 33260.0835993249
 -681245.212640910 -413608.887502397 69517.2527713134
 -775686.910962709 -162205.179046875 109541.298383314
 -775575.336599787 162776.150390894 109484.346470396
 -681025.678601312 413983.365726366 69439.1675316767
 -565614.672898724 564780.762085186 33207.4175470814
 -464309.161504268 651354.364413845 12429.5817402749
 -382107.621138207 702840.570823392 2982.93022865430
 -315664.166934874 735089.017637769 -519.482098619047
 -261169.762430538 756166.811681889 -1451.93072273863
 -216062.029231520 770269.470180511 -1463.84158776797
 -179452.932978736 779612.100261192 -1271.99515051407
 -153375.998458370 785158.887286998 -1151.00440563762
 -213630.428085001 -770948.046380874 -1072.37014802480
 -248129.935252681 -760545.938506501 -1187.70904018726
 -295265.218360647 -743516.285468132 -1408.57023621009
 -350976.620912430 -718897.006822026 -1582.76821590692
 -414526.370323595 -684226.643683258 -1337.30336512815
 -486194.054072570 -635307.273656233 99.1159064798603
 -566125.846019785 -565229.705685641 4111.72456572140
 -652065.387168296 -463310.280611244 12422.3482880944
 -734602.731922518 -315777.465048315 25365.7016388881
 -790796.053375603 -114978.083478261 37704.6719285057
 -790733.698317676 115410.739790398 37690.5755578863
 -734457.082929979 316118.271528405 25338.3452474746
 -651895.166258300 463550.212798972 12405.3384916136
 -565963.222486189 565392.618696905 4100.91649558526
 -486050.239402353 635417.307827241 98.4403154936718
 -414403.282967992 684301.196256517 -1338.60645832698
 -350872.827298783 718947.678137876 -1579.60865926720
 -295178.382825906 743550.764310459 -1408.26333303101
 -248057.251867137 760569.651316504 -1185.45029986606
 -213567.946820104 770965.358644456 -1071.38287802670
 -273659.829973526 -751737.552082840 -974.806319268983
 -315027.037846585 -735361.691025598 -1071.81975143136
 -369675.939630119 -709463.209631708 -1286.01619858989
 -431233.903991335 -673821.173907789 -1531.54886338768
 -497182.072332983 -626743.407541335 -1639.52863795439
 -566028.879439551 -565340.336091176 -1269.65693083769
 -635960.276999373 -485339.590093301 91.4710233188062
 -703322.473747741 -381220.008439475 2966.99962310046
 -760532.902612668 -248068.726175508 7184.08917061201
 -795190.573535224 -86913.3995485786 10863.3668644522
 -795153.179828063 87255.5781805739 10857.4714227568
 -760436.209658929 248365.139502057 7178.33683281936
 -703195.056419829 381455.048084345 2959.54687118838
 -635824.152465669 485517.907865090 91.0143925416471
 -565896.522563416 565472.819130084 -1271.44630558166
 -497059.436984894 626840.679611860 -1636.60868859365
 -431123.511930676 673891.810057345 -1531.59988084584
 -369578.489195297 709513.983623759 -1283.49774625345
 -314941.972976105 735398.127299351 -1071.45813136107
 -273584.556497656 751764.951738413 -973.541844618903
 -334158.113797856 -726868.347379991 -872.100990847768
 -380673.804736233 -703623.877144095 -945.463036159454
 -439728.509613454 -668309.491932693 -1122.86499481696
 -502725.375312050 -622306.465853012 -1363.66230884694
 -565964.214815421 -565404.285900897 -1581.46554190680
 -627273.270415769 -496513.390075516 -1642.46693258567
 -684700.550486558 -413743.090596444 -1345.78865693539
 -735411.684851874 -314911.675640000 -538.821803216635
 -774880.668428389 -198895.657410743 683.490395979704
 -797081.677974876 -68248.6370980410 1709.43587648208
 -797057.850972879 68526.3236450365 1710.31289262060
 -774815.524728522 199149.291816976 679.859149044684
 -735318.698221871 315128.739644326 -538.047834403339
 -684592.637432322 413921.616803285 -1347.55942835160
 -627159.752266362 496656.778842642 -1639.86793581553
 -565851.136891083 565517.452120105 -1581.84280273017
 -502616.641303250 622394.295575055 -1361.14682247317
 -439626.752743754 668376.433862954 -1122.91078087058
 -380580.487015870 703674.357737294 -944.015768906350
 -334072.603351583 726907.652972309 -871.630761248986
 -395550.049686046 -695370.081203838 -779.974317274546
 -445263.873813114 -664634.787828908 -825.520782572707
 -505451.191830484 -620095.293970708 -958.682702850207
 -565924.193819724 -565445.383706762 -1151.04048966118
 -622753.945767398 -502170.946041264 -1365.27768613550
 -674225.108074822 -430602.073215756 -1535.63790920062
 -719231.350040276 -350290.928867986 -1590.68288642556
 -756387.407386134 -260530.119569526 -1465.17738535010
 -783558.669093819 -161351.731869181 -1196.12321212045
 -798127.992786610 -54688.2459526304 -950.202631902757
 -798112.311639890 54916.5868477065 -952.101795334025
 -783514.309409084 161567.014180764 -1194.52079107897
 -756320.615396426 260723.945157874 -1466.67913508870
 -719148.926517953 350460.123815533 -1588.42792601918
 -674132.667109990 430746.778305749 -1536.26637997809
 -622655.694445582 502292.771580349 -1363.00866534646
 -565823.421242888 565546.223019330 -1151.34771667928
 -505350.776210581 620177.133362391 -957.203097778679
 -445166.410451117 664700.071789052 -825.572345839008
 -395456.868022928 695423.078468127 -779.401957342046
 -457333.668636448 -656388.153053052 -712.785473900879
 -507977.169500803 -618028.039998838 -732.830912915830
 -565901.598911031 -565468.573902912 -819.925694771341
 -620491.145969645 -504965.163818298 -959.741234459519
 -668662.198172688 -439191.983270643 -1125.41799647971
 -709760.029861392 -369105.722405015 -1290.61962934551
 -743753.778093198 -294666.443061855 -1415.94680986013
 -770417.764015854 -215532.560000255 -1477.99477270919
 -789078.460420086 -131730.852494331 -1471.66646493440
 -798770.435172931 -44313.7248191927 -1444.19053302600
 -798759.933224672 44502.6711837630 -1442.68237243103
 -789048.094165597 131912.606287289 -1472.88700629541
 -770370.350982972 215701.977675416 -1476.19554500191
 -743692.546277703 294820.945144541 -1416.65629790536
 -709687.754185225 369244.675807328 -1288.77751102333
 -668580.955654913 439315.647591125 -1125.84064263281
 -620402.580398094 505073.974460926 -958.414122585136
 -565807.445779069 565562.783012879 -820.226610889287
 -507879.704595077 618108.137352648 -732.256005838939
 -457235.562029954 656456.497212630 -712.799044322338
 -516819.575781692 -610652.974158901 -686.469023830574
 -565895.258393076 -565475.101654859 -682.595532532131
 -618400.624746963 -507523.525808102 -733.528376413481
 -664957.314238305 -444782.065608084 -827.257146633787
 -703893.442516736 -380175.119841940 -948.596386002574
 -735580.892549565 -314514.850428404 -1076.74323008788
 -760712.390140166 -247619.126475637 -1194.86010795678
 -779714.901602321 -179005.662607335 -1282.56531643721
 -792613.759186714 -108451.119134705 -1335.47981446737
 -799174.734860391 -36302.9808607824 -1355.26434497343
 -799167.566926535 36460.4008461899 -1356.15001275942
 -792592.751636413 108604.556380077 -1334.31139709632
 -779681.262069392 179152.123082569 -1283.11062981929
 -760667.494601655 247757.014059129 -1193.58323731329
 -735525.779802090 314643.714656927 -1077.06704423642
 -703828.601351408 380295.151173209 -947.583171182899
 -664882.771402793 444893.487764756 -827.548339237924
 -618316.328359304 507626.221464396 -733.052556115290
 -565801.827360094 565568.586336266 -682.865707522777
 -516719.527118285 610737.635158104 -686.510118836403
 -565905.949705907 -565464.369367810 -709.269287540585
 -611036.030448846 -516366.631155652 -686.820413235542
 -656709.393276674 -456872.261348119 -713.857716936251
 -695633.949673318 -395085.808871996 -782.106040796934
 -727081.547728325 -333693.955959607 -875.619216772579
 -751904.233894937 -273201.505422730 -980.043683884573
 -771072.320671521 -213181.403086651 -1079.66302233231
 -785233.543158316 -152993.239366076 -1162.50045682760
 -794668.392654739 -92199.0272431707 -1218.64307666535
 -799406.823071989 -30776.2398408156 -1246.71055582687
 -799401.618624299 30911.1448313059 -1246.30095450674
 -794653.002166855 92331.5802695026 -1218.78305774803
 -785208.508667653 153121.676852595 -1161.89232270271
 -771038.183554111 213304.837981059 -1079.62745933816
 -751861.212476605 273319.881841413 -979.470982593851
 -727029.312533452 333807.747079287 -875.618060095065
 -695571.559405908 395195.640780788 -781.827024673525
 -656635.444551245 456978.536822053 -714.032888674417
 -610949.183166201 516469.383138976 -686.926924337802
 -565806.636431548 565563.742367148 -709.570070627120
# End: Data Text
# End: Segment
