# OOMMF OVF 2.0
#
# Segment count: 1
#
# Begin: Segment
# Begin: Header
#
# Title: Oxs_TimeDriver::Magnetization
# Desc: Oxs vector field output
# Desc:  MIF source file: C:/Users/Victor H. González/Documents/GitHub/Intro-to-magnetism-in-python/vortex_dynamics/drive-2/vortex_dynamics.mif
# Desc:  Iteration: 530, State id: 3371
# Desc:  Stage: 75, Stage iteration: 6
# Desc:  Stage simulation time: 1e-11 s
# Desc:  Total simulation time: 7.6e-10 s
# meshunit: m
# meshtype: rectangular
# xbase: -4.7499999999999995e-08
# ybase: -4.7499999999999995e-08
# zbase: 2.5000000000000001e-09
# xnodes: 20
# ynodes: 20
# znodes: 1
# xstepsize: 5.0000000000000001e-09
# ystepsize: 5.0000000000000001e-09
# zstepsize: 5.0000000000000001e-09
# xmin: -4.9999999999999998e-08
# ymin: -4.9999999999999998e-08
# zmin: 0
# xmax: 4.9999999999999998e-08
# ymax: 4.9999999999999998e-08
# zmax: 5.0000000000000001e-09
# valuedim: 3
# valuelabels: Magnetization_x Magnetization_y Magnetization_z
# valueunits: A/m A/m A/m
#
# End: Header
#
# Begin: Data Text
 640909.245208357 -478760.514015648 4869.25311794844
 675862.258675949 -428011.331847717 4062.89396726777
 711721.577194863 -365296.744907628 3268.74825408344
 742120.367662245 -298748.477998736 2589.74792095720
 765874.210500037 -231155.187754100 1993.20478446819
 783122.426255329 -163453.641827124 1473.92992271156
 794208.186783039 -96085.4523778020 970.509222855614
 799451.569553367 -29612.9931145971 508.505114513590
 799227.391177015 35150.7550791633 40.1216383771677
 794049.435085916 97392.8742690846 -350.258966965631
 784512.678371212 156650.451930328 -702.413589953892
 771115.580144836 213025.592541378 -926.811894026175
 754068.658647866 267168.916605849 -1108.17176666560
 733158.301536182 320121.081655638 -1182.35705512358
 707684.366458320 373070.058378047 -1252.60220580066
 676483.916870573 427045.562501200 -1264.02669333280
 638114.539889182 482501.948727059 -1305.16535606705
 591443.039115892 538695.966773263 -1336.73616634820
 537334.932560718 592679.632376853 -1422.53843803464
 484294.756027331 636754.454741825 -1534.16129197914
 594949.986630002 -534804.229581728 4353.09435393070
 637916.565669887 -482751.271974317 3696.57288822138
 683066.514099469 -416426.275150750 3048.71777478671
 722183.041340035 -344159.319087469 2453.13801242490
 753498.699741569 -268767.348756461 1954.92459888098
 776766.970199343 -191392.139964841 1456.97186387567
 791997.242334930 -112868.620575022 1021.08929978525
 799258.624205219 -34429.6821751906 498.616983608153
 798884.780312118 42226.8469064914 34.4382819580617
 791632.026872095 115405.771610305 -491.842869950290
 778532.289764958 184083.653739992 -825.965536333871
 760534.031289864 248166.606978013 -1149.97000320015
 738180.579896844 308363.242695244 -1241.78002587150
 711455.589003367 365826.572167272 -1365.27367828191
 679784.899466182 421770.970941635 -1318.53278445944
 642176.607818265 477082.145062736 -1353.23071411816
 597564.693130428 531897.337593747 -1288.32628658559
 545564.261958634 585113.578751679 -1317.58640412570
 488338.581141338 633658.961077427 -1323.33485589279
 436348.463721376 670520.716363605 -1409.65784226836
 536320.522388438 -593586.928960706 3854.22261828971
 585743.341115678 -544879.236582552 3369.84864012642
 640907.009665819 -478779.650527459 2872.49056091110
 691279.282981782 -402649.799156455 2468.23002600788
 733523.247165652 -319279.378437338 2079.51249667203
 766213.544072854 -230029.554168111 1791.39290428597
 788295.344143963 -136339.725932256 1389.07655241942
 798965.088649265 -40668.0662752117 946.311315602519
 798217.185466874 53378.6557964349 209.596536749343
 787260.217456328 142201.108305215 -441.369894803114
 768109.130816689 223622.667993952 -1124.95124191125
 742708.925248097 297290.144691257 -1422.05002323226
 712326.425943722 364126.613883281 -1694.68703253809
 677395.415754397 425596.978260725 -1631.81195880784
 637676.798906075 483079.205880867 -1667.62777994260
 592605.035949330 537417.011137886 -1492.48353897612
 541797.872623723 588602.504269690 -1468.73682403930
 485909.851587297 635523.273594488 -1335.98284300229
 428267.592045454 675710.778705880 -1346.53046088244
 379314.839047025 704356.729978400 -1360.07825716512
 472124.261733681 -645822.621903404 3438.38919269049
 525259.393384455 -603401.206294527 3090.93896828268
 588435.237158403 -541974.104383864 2835.81516375185
 650129.010964267 -466181.438503013 2671.23527327377
 705326.384584340 -377501.288057073 2732.89671151939
 750634.380396266 -276658.364739544 2859.40321683510
 782739.619155975 -165256.134502475 3016.39070055336
 798583.871377096 -47508.5531215095 2595.71891195695
 796984.206673589 69379.8989494208 1613.67116814432
 779970.366066706 177893.833086928 110.487149570104
 751649.889760431 273900.383663332 -1011.46043573969
 715939.793935427 356968.686662397 -1888.96856055530
 675372.310156491 428798.152374958 -2094.56289115316
 631080.734396420 491662.564557651 -2242.60702500775
 583301.002172665 547499.752476862 -1990.45274753928
 531969.574429124 597498.722597017 -1910.07241509647
 477362.139646820 641967.889236911 -1617.65896153905
 420794.419206543 680389.365349617 -1538.92292685730
 365801.837466727 711468.258803742 -1390.11536917231
 321325.750263956 732630.706930893 -1417.56102055892
 404760.889264842 -690042.745931317 3103.43504877332
 458465.150858878 -655592.170437531 2934.53726426595
 526298.922817353 -602495.352787352 2965.41918451537
 597575.761843039 -531875.359891555 3436.62595306416
 666560.019776242 -442355.148945682 4434.21212172348
 727810.193962456 -332046.118138312 6139.78774954903
 774315.904935958 -200931.815361062 7828.46976860940
 798080.526130363 -54752.8637676710 8342.52484093791
 794605.598224432 92534.9669984188 6262.83905218123
 767605.127393979 225329.465407639 3000.06959613668
 725775.615562398 336526.000163278 -84.0781025672053
 676645.948363872 426786.898811519 -1789.85072054792
 624521.949277909 499964.947145024 -2717.81095626401
 571180.781581348 560129.633312185 -2703.44921883032
 517086.391650093 610421.683628034 -2651.74037259775
 462371.524909421 652845.851177435 -2206.25323730219
 407471.569818590 688449.592745971 -2019.41513338416
 353685.490932385 717567.973301836 -1666.49194868074
 303891.590265356 740032.029189512 -1580.23404835879
 265047.720380551 754816.158141631 -1507.75640672523
 334435.748705267 -726735.464740721 2879.97847834304
 385345.274181583 -701071.009381933 2908.51682453399
 453451.774697316 -659066.781255537 3530.70379962764
 530697.981182353 -598609.100850140 5176.59621384750
 612598.581856471 -514439.081135935 8683.85326078910
 693042.096938026 -399355.286309115 14422.4536299690
 760498.234710238 -247352.700472577 21426.0722377391
 797127.625006232 -62935.9886837881 25032.1948761474
 789537.035754205 127311.869695209 20565.9185832883
 745576.272434063 289800.749655013 11469.4150993269
 684292.397196936 414402.255154878 3832.23968737281
 619106.087870492 506662.457418523 -897.888812135942
 555803.095956025 575391.414808825 -2763.74564596297
 495852.292449880 627788.781314312 -3427.84598389114
 439096.473314332 668718.780443101 -3078.92929550855
 385108.378464662 701201.536592879 -2818.14054008875
 333860.772986940 727002.033605519 -2242.18509555931
 286005.459991539 747125.720859028 -2008.50339943574
 243412.827100771 762067.786379384 -1698.40090518790
 211064.666571470 771653.352498337 -1676.33622921152
 260329.939692805 -756452.737327822 2752.94184203937
 304765.256114924 -739667.768429069 3119.45706276297
 367511.124927773 -710572.938365067 4655.35364468240
 444488.983454732 -665096.463392870 8731.43571678879
 535024.615385069 -594509.810157193 17514.1816514024
 636156.989790237 -483911.806648749 33669.6855786964
 734054.322612523 -313106.941387570 55931.1604455915
 793357.244642287 -74179.6828082532 71285.7421372978
 776659.064374656 182502.649525757 59105.6735073965
 703346.849279638 379697.266200106 33662.9714756554
 615919.470378491 510355.960030636 13416.4104695107
 534776.285898760 594985.969764588 2453.53288546809
 464264.698027395 651500.126667975 -2423.86409371714
 403173.447832435 690968.758761882 -3653.13262428808
 349328.887541436 719690.807004095 -3804.02981805981
 301050.774660768 741187.280946446 -3137.77618163213
 257380.290792988 757461.441597043 -2747.80003768550
 218188.531674520 769668.169392967 -2161.86701651576
 184325.342938693 778473.052801002 -1968.25131080020
 159117.902869315 784014.145170658 -1820.20844781497
 181602.341922758 -779110.588887326 2698.09040129565
 215503.451126773 -770419.487375891 3475.05739816348
 265736.528602850 -754547.947346761 6441.46884621613
 332287.196899868 -727584.270115926 14364.8409773511
 419990.144616339 -680079.890582440 33160.5315174948
 534898.936947707 -590512.418474371 71959.7865461209
 671213.492558839 -413591.741454336 135699.369223796
 771116.208264819 -94394.7173317547 190969.711449607
 734981.356278498 275388.155744166 154802.356567490
 615016.103811495 504975.315581331 82189.5535093342
 500801.905916305 622984.856406626 32974.5313630469
 412330.375660872 685498.493900384 8687.70209381480
 344999.354007584 721785.826021253 -816.755268461728
 291923.384386729 744825.587920401 -3947.30632559795
 248241.120564639 760499.583600952 -4090.15936004326
 210977.722204756 771669.767332313 -3764.42805568631
 178544.045480817 779816.238571236 -2942.42824092999
 150236.610629534 785762.354997161 -2546.03532293272
 126289.879515031 789966.139566810 -2089.17926220680
 108685.073445304 792580.259924818 -2021.48155984725
 98328.6134089349 -793929.999725459 2576.68799174374
 117664.860835743 -791290.457420093 3793.74754088836
 147276.987597669 -786283.523230470 8228.60987260538
 189020.979765928 -777068.419420612 20874.4041227739
 250326.154851132 -757941.157043592 53497.8378709652
 346226.469724130 -709216.157216057 130918.577772808
 494030.798847662 -560250.931457562 286448.012021162
 638710.233106852 -134462.809484279 462567.823124551
 575877.734804975 427666.424299977 354212.173820103
 420082.957913629 660471.073918945 165252.137616710
 310222.917008991 734861.690342208 61155.8486967863
 241659.943561369 762433.209010260 17206.7857612335
 196227.343430189 775560.409308637 938.724320658654
 163302.802956356 783146.424166359 -3724.62911501498
 137498.059676954 788081.565000038 -4661.59759785135
 116152.258465192 791513.056789866 -3966.58349194350
 97892.2052912371 793980.745347291 -3419.38020384254
 82165.0364443317 795764.970064437 -2649.37812494699
 68943.1549261069 797020.245643246 -2359.96262994263
 59271.5079635707 797798.370662207 -2155.94815617859
 12165.4477755507 -799904.354847951 2241.64575774362
 14104.1781618008 -799867.480757048 3617.37276953225
 16689.3904872447 -799777.764902744 8774.45225273126
 19858.6509544639 -799395.455102847 23927.8152613462
 24186.4609735840 -796943.217182634 65547.8732848469
 31539.3370274629 -780249.380392952 173828.002969268
 45903.9547215495 -675060.359000587 426832.916545714
 64474.2891779935 -176233.200315930 777679.191660288
 57343.2034814313 565679.421013264 562777.531229337
 40603.9586490310 764277.963187117 232874.458729546
 32054.7982431734 795352.162666802 79921.3816874476
 27897.6215540060 799219.911399108 21662.3160080321
 25278.5782715874 799598.402593947 1840.66557960060
 23050.2625765143 799657.309563854 -4107.63389950998
 20869.9978491457 799713.211613380 -4818.95847578958
 18614.4206053412 799770.907468899 -4472.01430017456
 16348.4670936975 799825.303704702 -3494.44950865970
 14114.6003481739 799869.931216189 -2978.45483765489
 12077.5527347387 799905.138538371 -2429.41553668623
 10485.5167796488 799927.884041101 -2331.15237377185
 -73817.5042904170 -796585.461699986 1605.69877464029
 -89486.0587898611 -794974.627805622 2754.34703172638
 -114486.477425166 -791734.222848445 7054.56287424147
 -151296.403827630 -785315.906580030 19705.9651174909
 -207634.263641549 -770747.511818599 53256.7891209201
 -299331.261263561 -729479.455002045 135131.494331582
 -447324.315148204 -588571.649318953 305752.139314113
 -600524.332768486 -144395.272846679 508449.142916474
 -530167.720935757 458840.873004481 385210.644892210
 -367107.029411542 689114.607462960 174222.520753784
 -257186.491220798 754967.137894398 62287.4741266259
 -190599.486496109 776790.736259462 16370.3331945866
 -147836.262027093 786221.610672058 -136.169351359813
 -118098.571684280 791221.336115130 -4639.46573658612
 -96030.3903910381 794197.302514378 -5367.38299655848
 -78795.7159301205 796097.324243081 -4503.94094846838
 -64925.0162550147 797351.896854093 -3833.38590094133
 -53563.1564503247 798199.295488598 -2978.75017151185
 -44437.3403300139 798760.511407146 -2639.73502248008
 -37959.1782604516 799095.271551739 -2418.21616964184
 -156441.892532962 -784554.185826726 814.716188174179
 -187179.238357991 -777792.875342461 1475.05736462287
 -234033.643930684 -764990.864511370 4150.99056512826
 -298198.095169739 -742251.830884128 11837.0429711525
 -385849.554019688 -700111.491094476 31048.6988499900
 -505159.370153841 -616083.905078587 72488.8449962633
 -652824.510122601 -439562.726523033 143543.611612726
 -765716.113780911 -101385.352306419 208326.290789144
 -723107.639482838 298538.590423137 167302.276582609
 -587787.299841980 535915.607414510 85443.2669905140
 -463607.817162145 651192.910825561 31868.2405646245
 -370352.614247244 709081.856397819 6470.08868984718
 -301482.067413889 741012.744238351 -2945.48878730645
 -249018.314343470 760235.299573748 -5671.71962909146
 -207407.926892401 772627.016074401 -5426.40711360456
 -173312.232263086 780986.507224633 -4790.16503411334
 -144702.572658425 786795.505660359 -3741.35519491740
 -120579.432188559 790854.237654155 -3189.87735666174
 -100687.082022461 793634.140618905 -2638.62803232770
 -86353.2063698377 795321.740203997 -2540.33630326324
 -233852.572923097 -765057.494839015 61.0565122450123
 -275783.494906398 -750961.632454167 300.863733093252
 -336584.665226883 -725746.925092767 1471.00390955665
 -413604.600975355 -684766.706967438 5078.49199938980
 -507383.052134871 -618365.445866859 13660.6648514076
 -615920.696866873 -509619.525663649 30489.9037942463
 -724741.720825980 -334260.901620150 54946.2259148050
 -792688.929511626 -79698.3352887489 72749.1332038694
 -772954.499418334 197488.719992797 59494.0947032471
 -688609.536597797 405983.583181050 31531.5127141454
 -590461.584412546 539679.107444571 10078.6070891371
 -501592.754847810 623220.536727991 -933.212012506215
 -426430.262738825 676852.193751473 -5323.42317639480
 -363247.364229614 712752.083285111 -5984.99398262169
 -309450.835958890 737704.887643284 -5628.39866691877
 -262872.986633851 755563.985597094 -4566.89903896078
 -222198.333602501 768513.380637933 -3883.85436479853
 -186766.836006428 777887.269852017 -3089.39643354543
 -156916.771088601 784454.864243626 -2773.61057866972
 -135058.121312202 788512.919117204 -2584.61851798587
 -305881.836278451 -739213.122991286 -510.913294172738
 -355085.070453657 -716878.154246466 -552.000996527468
 -422783.984338436 -679156.555297770 -275.650112163735
 -502176.154239765 -622750.624606990 877.305285518334
 -589337.581154566 -540986.063403509 3910.83649112687
 -677834.656330901 -424793.921011563 9502.80739522346
 -754285.021566235 -266027.479394734 16837.0557909371
 -796792.404155838 -68424.9604566325 20973.5420486801
 -787935.495535692 137437.708366122 16386.9214311864
 -736809.700616803 311548.829676075 6985.11305886640
 -666541.739706563 442404.532241224 -582.306939718573
 -593168.726940303 536775.172317725 -4824.49617034384
 -523494.348593439 604910.641902999 -6064.84156703815
 -459331.870539542 654963.334204380 -6104.38813695768
 -400499.527830333 692511.931885678 -5229.95254711248
 -346504.212277450 721050.711623021 -4549.96065027789
 -297005.498824579 742815.191614137 -3650.31166028305
 -252285.658836468 759171.766254855 -3189.93212048175
 -213506.929794331 770978.143812750 -2737.27836447230
 -184598.057058703 778406.316782815 -2676.43844769391
 -373523.530952173 -707445.667232374 -894.281366780654
 -426554.886979686 -676793.817193146 -1028.30096708254
 -495683.859931808 -627929.980846123 -1204.22493309491
 -570997.498694848 -560321.880395619 -1116.61727740772
 -646506.637419727 -471199.413160010 -529.914992169841
 -715676.955838874 -357499.339809958 846.709304320159
 -769564.425212957 -218551.233837900 2440.00708666292
 -797691.597285891 -60654.8427668985 3017.56000856475
 -793768.308107977 99652.9451177046 1078.69030202437
 -762022.854745014 243551.465238998 -1962.81078992734
 -713154.360824601 362477.082582429 -4606.76018341372
 -656466.984605691 457184.872031933 -5752.46971808628
 -597419.517766202 532027.308585326 -6071.46699340411
 -538429.421203921 591661.639124113 -5501.19723136324
 -480430.399124639 639657.643444600 -4973.00511168507
 -423786.796402306 678518.731325200 -4133.09035841331
 -369081.820636429 709764.279019508 -3643.88578526736
 -317387.446954620 734340.421050459 -3058.51713433210
 -271020.205212250 752688.502250049 -2840.23718872999
 -235614.767780337 764511.748895694 -2732.58197772045
 -438137.120710207 -669353.877179122 -1118.28486763495
 -491960.920940811 -630850.885455294 -1269.87690064460
 -558325.790949412 -572948.466600028 -1538.10968089095
 -625692.066827467 -498503.723119474 -1864.28141530680
 -688098.158276073 -408064.633862630 -2044.30125804040
 -740789.849321683 -302036.232043618 -2124.54109198852
 -778964.930781434 -182234.120096496 -2088.56058857774
 -798185.724889622 -53790.7839063174 -2469.84800597752
 -796518.382276896 74482.5107543590 -3289.72441443457
 -776282.351661427 193302.026748067 -4476.26564153054
 -742586.588645105 297553.943292291 -5177.75971178731
 -700426.661448815 386486.117672226 -5565.31924666632
 -653164.510156473 461896.314521574 -5283.68275372216
 -602614.307996784 526147.414143639 -4989.42757449048
 -549554.472752772 581352.734421602 -4345.07283595016
 -494511.730892251 628842.231325446 -3949.19125688006
 -438216.458723956 669294.308272530 -3385.88502929085
 -382286.305148711 702742.806006446 -3119.21495456755
 -329937.652442409 728788.741010049 -2848.94327445220
 -288773.623791101 746057.354594000 -2866.68079082604
 -500641.330787438 -623984.517089020 -1257.11597195024
 -552413.191529800 -578651.747382434 -1349.47216224364
 -612633.910882764 -514467.767917522 -1614.62393509645
 -669793.195004885 -437462.321770370 -1947.55139250613
 -719237.714374590 -350273.551178819 -2355.75164137872
 -758406.255370695 -254583.352489846 -2696.00623727635
 -785339.402805568 -152421.656184186 -3108.23536154964
 -798608.866588056 -47029.2694473819 -3482.24384347774
 -797957.197279358 56990.8982960828 -4043.36759112749
 -784801.207675251 155137.104429390 -4420.77603276100
 -761675.709493495 244596.408952939 -4765.53196480529
 -731096.090764398 324771.525867413 -4686.36903888494
 -694850.810627813 396435.524083237 -4607.19163049853
 -653804.954288578 461000.416686341 -4206.84712462371
 -608216.655544307 519669.814009466 -3972.94926537907
 -558077.624353363 573181.282380881 -3547.21359902867
 -503757.067018324 621464.103818574 -3344.41236587256
 -446627.558857101 663712.637903205 -3059.07778839385
 -390394.412175259 698271.554838078 -3006.43415814621
 -344436.400298956 722048.721281267 -3034.83857665445
 -560720.005035823 -570606.034615574 -1352.48398086818
 -607676.231305137 -520314.969519268 -1389.38869618212
 -659112.785913958 -453395.983021677 -1554.99985455467
 -705048.067127871 -378026.182083548 -1851.67453657985
 -742638.568532111 -297461.279552888 -2178.00260211490
 -771016.808526626 -213369.258933283 -2576.88022201737
 -789835.032719166 -127090.967010293 -2916.70943058063
 -798972.958554024 -40387.9686839455 -3320.16340171803
 -798750.408525753 44551.8267450589 -3594.38640409660
 -790073.674259799 125572.334753620 -3895.89349779578
 -774229.611959587 201377.606536237 -3945.57355068187
 -752446.064389010 271677.839829829 -4008.93138977571
 -725498.170372594 337102.050903824 -3822.57275325570
 -693600.109415302 398628.777393721 -3739.79313180992
 -656421.410928308 457273.202549155 -3485.61405331587
 -613386.721665817 513561.309054377 -3392.86404315432
 -564058.320462398 567298.825655337 -3202.11292980245
 -509022.191311006 617159.851896073 -3182.13144895869
 -451511.897376086 660399.078639646 -3172.29565976777
 -402083.660838031 691605.099325512 -3334.10768238924
 -615846.127779588 -510618.677788223 -1453.54487186301
 -655561.676963565 -458515.949232655 -1418.44844701044
 -696739.126698040 -393131.379364300 -1519.17318767199
 -731897.420215800 -322991.076904100 -1711.87668590811
 -759590.149930854 -251035.490157163 -1996.69967092379
 -779841.372333683 -178443.845712363 -2286.46541643242
 -792952.485037244 -105922.072787178 -2621.25346477946
 -799262.281601631 -34226.8994811226 -2885.23150966169
 -799198.258117889 35666.9580491279 -3164.22579038336
 -793352.422806052 102864.138605357 -3301.85050324381
 -782405.632808543 166822.034925315 -3440.11814340372
 -766927.813059768 227618.287224585 -3412.45898235285
 -747190.705915258 285822.141158989 -3428.20902936773
 -723021.880134452 342386.246626123 -3319.48311006954
 -693802.123366059 398280.886220922 -3308.97020613940
 -658520.075342705 454247.594570038 -3230.04612547593
 -616090.899469210 510314.879999158 -3275.18589796960
 -566027.048541263 565333.852081441 -3319.03757554196
 -510296.043991147 616105.231723031 -3505.84233754664
 -459060.133844531 655171.501122823 -3754.68122576058
 -659083.679929880 -453438.244756224 -1568.77101038209
 -690334.452623990 -404272.342518115 -1488.82344540692
 -722358.618034210 -343795.991265910 -1530.79756896322
 -749346.178546755 -280138.285432757 -1686.92980550211
 -770241.289470140 -216159.000739342 -1908.50589376714
 -785262.498988318 -152833.420091492 -2180.22607995817
 -794860.314561541 -90504.6410006239 -2447.50740065069
 -799452.695145498 -29462.0676142852 -2715.65765349101
 -799434.774786700 29924.8505905777 -2923.04274194179
 -795217.166008721 87292.8769089604 -3100.40739509357
 -787197.546585581 142512.659384285 -3188.19147176839
 -775661.423376864 195802.872591966 -3254.43846350154
 -760653.107490601 247782.721727115 -3251.59628426716
 -741873.559315669 299354.185630325 -3270.09692586696
 -718603.338103367 351565.892542930 -3265.83330741162
 -689708.760029183 405327.972578903 -3325.80577958495
 -653776.503814881 461047.307672938 -3415.13500857868
 -609661.115241482 517977.114298399 -3610.21129805821
 -558096.780806399 573160.345098109 -3898.98198913503
 -507196.147453455 618654.740083337 -4287.25795731157
# End: Data Text
# End: Segment
