# OOMMF OVF 2.0
#
# Segment count: 1
#
# Begin: Segment
# Begin: Header
#
# Title: Oxs_TimeDriver::Magnetization
# Desc: Oxs vector field output
# Desc:  MIF source file: C:/Users/Victor H. González/Documents/GitHub/Intro-to-magnetism-in-python/vortex_dynamics/drive-2/vortex_dynamics.mif
# Desc:  Iteration: 3316, State id: 20883
# Desc:  Stage: 473, Stage iteration: 6
# Desc:  Stage simulation time: 1e-11 s
# Desc:  Total simulation time: 4.74e-09 s
# meshunit: m
# meshtype: rectangular
# xbase: -4.7499999999999995e-08
# ybase: -4.7499999999999995e-08
# zbase: 2.5000000000000001e-09
# xnodes: 20
# ynodes: 20
# znodes: 1
# xstepsize: 5.0000000000000001e-09
# ystepsize: 5.0000000000000001e-09
# zstepsize: 5.0000000000000001e-09
# xmin: -4.9999999999999998e-08
# ymin: -4.9999999999999998e-08
# zmin: 0
# xmax: 4.9999999999999998e-08
# ymax: 4.9999999999999998e-08
# zmax: 5.0000000000000001e-09
# valuedim: 3
# valuelabels: Magnetization_x Magnetization_y Magnetization_z
# valueunits: A/m A/m A/m
#
# End: Header
#
# Begin: Data Text
 565616.155041052 -565754.301734838 -659.715926047377
 610789.178618657 -516658.655327416 -642.773376030245
 656509.989792580 -457158.811563027 -674.027320124995
 695480.119659043 -395356.608410380 -745.214925132201
 726968.521628341 -333940.208565939 -840.038357690839
 751827.916844962 -273411.575842241 -945.329585952996
 771026.874981191 -213345.885296398 -1044.64531572200
 785212.983053227 -153098.987627713 -1127.48925552204
 794663.924494410 -92237.9944702869 -1182.99756577165
 799408.287476331 -30739.5863416576 -1211.50555202497
 799397.361934612 31022.4150174849 -1211.40351082880
 794631.732783391 92514.8849611757 -1185.45952502028
 785160.984628688 153365.419707457 -1129.71450566746
 770956.653354276 213599.479969133 -1049.19287574909
 751740.439898570 273651.985111311 -949.771416269925
 726863.613490985 334168.476519052 -846.571771166864
 695356.306705664 395574.318033299 -752.088523653704
 656364.742940843 457367.311837337 -682.852026521819
 610619.894778286 516858.702283931 -652.667086876263
 565423.374893093 565946.955486949 -671.341611117660
 516515.891920320 -610909.911354762 -643.119174359706
 565618.421415162 -565752.055199286 -642.956924031149
 618163.859109220 -507811.931129875 -697.060501882970
 664763.802219225 -445071.297851955 -791.888512292869
 703745.976866443 -380448.109325430 -914.415114588188
 735476.102598823 -314759.936479300 -1041.58225408173
 760648.702514798 -247814.863151841 -1159.72565232267
 779684.191203178 -179139.641184598 -1245.36906169904
 792606.958654488 -108501.261035862 -1298.24732231460
 799176.558551258 -36264.2330669049 -1316.68608142172
 799161.403829122 36596.5840194521 -1319.34376689097
 792562.727629188 108823.882044763 -1298.25640314026
 779613.906793582 179445.237029720 -1250.29652284189
 760555.894529385 248099.538402580 -1162.04175185138
 735363.578198703 315022.712345065 -1048.12478201420
 703615.321451132 380689.683215972 -918.973418394912
 664615.456649837 445292.774517295 -799.840495039927
 617997.892314061 508013.886859713 -704.168348854491
 565435.905158305 565934.458603890 -652.474161045208
 516321.286580675 611074.383704537 -653.149137854737
 457011.115750956 -656612.811632983 -675.040365740597
 507665.806408156 -618283.868624359 -697.712586102026
 565614.081821441 -565756.213906937 -785.411343071383
 620242.617730038 -505270.459961055 -925.981714046697
 668458.130829110 -439502.605125047 -1089.68653702959
 709609.578174571 -369395.010160566 -1254.20547892323
 743654.881609833 -294916.132176327 -1375.51445674041
 770369.224155532 -215706.275453253 -1435.68941216611
 789065.470574199 -131809.154574872 -1424.75182963374
 798773.130557204 -44266.6213273613 -1397.18864268056
 798750.660546595 44670.3008290114 -1395.17032065059
 789000.805848078 132195.621744563 -1430.37150851396
 770269.160347526 216063.315845532 -1436.71964909393
 743527.182314446 295237.898484172 -1382.91655248047
 709460.916169859 369680.440282422 -1257.17939000478
 668293.368595857 439753.076315786 -1097.88961350829
 620065.395347124 505487.921483078 -930.982134322445
 565427.782394953 565942.393038336 -794.139765229600
 507474.561027736 618440.840119954 -705.110936603292
 456819.482411798 656746.139854969 -684.305936147501
 395205.208614974 -695566.161324864 -747.197021475106
 444912.412499279 -664870.149394674 -793.503608499519
 505108.362325327 -620374.631195718 -926.972385641298
 565602.837042549 -565766.899161885 -1116.48652718437
 622476.569399075 -502514.830135755 -1328.92542778375
 674001.903254939 -430951.511208050 -1493.11627756335
 719078.927924326 -350603.927324730 -1543.23027374590
 756303.850378035 -260772.898909431 -1407.51473491866
 783535.363313195 -161465.333624099 -1131.58089330234
 798131.084918490 -54644.3006273810 -878.462167738192
 798096.983150327 55140.0403986200 -883.985964537861
 783439.459968479 161930.014151725 -1132.73170762648
 756160.950866269 261186.922031771 -1417.09018369227
 718904.999584051 350960.411648396 -1546.29513466022
 673809.795834743 431251.783535728 -1502.74229186386
 622275.554012595 502763.720378919 -1332.79745911173
 565399.585035249 565970.001082264 -1125.66287569503
 504908.284149593 620537.472848402 -932.409798776433
 444719.935344756 664998.898955189 -802.181615068083
 395022.109471414 695670.153922253 -754.963935864852
 333785.091434311 -727039.752417462 -843.291731054644
 380280.441983917 -703836.588955573 -917.328677424055
 439318.245641343 -668579.304491755 -1092.08604753876
 502321.355229663 -622632.705517037 -1330.45134073369
 565583.472794800 -565785.260973967 -1540.70308423307
 626950.346010603 -496921.244113371 -1593.98431727575
 684455.680467286 -414148.259668189 -1280.81609770617
 735269.786313565 -315242.976399516 -455.154016687313
 774832.383678326 -199083.270782505 792.778596504553
 797085.315135667 -68202.9327342249 1833.12888958148
 797032.448654755 68818.0115080756 1832.23455929063
 774688.874892806 199641.031486598 778.244360413770
 735067.517854074 315714.316607045 -463.125465666883
 684224.632925659 414529.823497153 -1295.04021845571
 626711.501486885 497222.421183143 -1599.30510763525
 565349.578775416 566018.944720786 -1551.77177017846
 502099.965938687 622811.241097944 -1334.97805556202
 439113.740488209 668713.623293597 -1101.33373894163
 380094.742981593 703936.882165439 -923.192806516450
 333615.861744454 727117.412850151 -851.306412225104
 273255.036005673 -751884.819961459 -950.162650787380
 314582.620581619 -735551.956267093 -1046.16425802006
 369195.303513284 -709713.494290162 -1258.52539996520
 430723.606585010 -674147.560939353 -1496.93350637546
 496675.241040959 -627145.242917049 -1596.62876750716
 565553.672903550 -565815.858422354 -1207.23778895315
 635572.855558012 -485846.798832518 182.598002118456
 703064.827311165 -381693.833287735 3109.05581085754
 760432.964292157 -248368.935402942 7387.74286587664
 795189.150485094 -86894.1086215058 11118.8505551367
 795104.180938437 87670.3993719923 11101.4651362666
 760215.274292334 249035.172820224 7363.38448217621
 702782.280807178 382214.061395246 3078.48261506640
 635276.583777258 486234.135373484 166.438867116775
 565271.206817696 566098.014582789 -1225.00134262692
 496418.519090639 627348.454632418 -1603.23865162121
 430496.432628362 674292.626888122 -1508.25016811791
 368997.660194153 709816.265403475 -1263.38430543789
 314411.933055108 735624.920629613 -1054.75173645549
 273104.951836312 751939.339173351 -956.810342054243
 213188.703546348 -771070.341355943 -1051.36171618403
 247634.799464902 -760707.332484159 -1166.36135642546
 294699.782552382 -743740.631682675 -1382.37036776371
 350351.909291877 -719201.735218037 -1550.39185434128
 413850.371300726 -684635.823838025 -1287.97976729027
 485513.790921776 -635827.278089342 176.811380121485
 565496.660519408 -565858.154214310 4251.61740640285
 651590.818438965 -463970.744318929 12670.9803164176
 734366.838704843 -316291.924360610 25783.0330821913
 790763.217817045 -115015.562867497 38274.7128781497
 790617.869110388 116024.056544082 38233.5369329699
 734031.112712205 317076.878483329 25701.7256570443
 651205.539025523 464513.011860624 12609.8277010452
 565136.413935328 566218.278274773 4206.54155674203
 485202.342103899 636064.983104526 156.477249925446
 413589.444557049 684793.446947190 -1306.28066593786
 350136.095823432 719306.812475853 -1556.89670624645
 294522.048829698 743811.012790998 -1392.84025868600
 247487.838232482 760755.149274419 -1171.65671980236
 213063.248659781 771105.006222141 -1058.98521840742
 152945.890631633 -785242.805287465 -1136.34641210062
 178957.488930684 -779726.005447281 -1254.42610399961
 215486.699962121 -770430.653600271 -1445.72905280023
 260497.792945075 -756398.628533712 -1419.37418061338
 314908.883783185 -735412.927731864 -469.722552373121
 381281.070319233 -703288.837682680 3091.31156066426
 463484.645553578 -651937.021009967 12653.2198560385
 564913.265933041 -565453.830207020 33689.2843063821
 680634.843021700 -414470.537604863 70358.9647618769
 775456.505470371 -162410.408552537 110860.576028982
 775190.047778812 163779.248073991 110710.197023583
 680117.529081089 415355.370502300 70143.1595491161
 564419.543346951 565955.890329466 33533.7037829278
 463087.152028435 652220.988869533 12572.6411005044
 380974.679004956 703455.059713608 3045.14702331161
 314673.410452796 735513.702817059 -487.567786038636
 260315.228540810 756461.447556039 -1435.32267064853
 215343.538160179 770470.670261780 -1451.49544216546
 178843.306656199 779752.188359754 -1263.49216549480
 152850.728455875 785261.325365278 -1142.67058893896
 92091.7026876046 -794680.874497469 -1194.15410838878
 108328.277056070 -792630.600208921 -1309.96278903006
 131589.848432451 -789102.048196339 -1438.51377071529
 161191.381315510 -783591.741506641 -1149.44864512061
 198725.385793486 -774924.275267164 767.230663571952
 247907.668898457 -760583.847705026 7348.35434307435
 315680.212386775 -734632.138676756 25722.0592227125
 413680.716871862 -681123.079559870 70282.3945185478
 553605.466680268 -554530.359089169 161298.072245638
 704436.300380665 -249205.952326581 285772.447991409
 703948.513870226 251148.363171880 285273.534517285
 552893.935003851 555405.802694607 160725.514368801
 413153.925633389 681475.983586169 69959.3991468149
 315327.453860718 734789.094284259 25565.2843253551
 247667.556241685 760662.689604077 7283.83343878530
 198555.616129497 774967.825523236 732.603046332952
 161067.021307748 783617.295522194 -1161.38087312204
 131496.056054421 789117.660242055 -1451.04660072798
 108255.505939728 792640.533232595 -1315.48868525548
 92032.0900291251 794687.768822910 -1201.86860210752
 30606.7411694530 -799413.364223557 -1224.94724771887
 36103.1762404810 -799183.826737587 -1331.06965070587
 44067.9758232250 -798784.083485234 -1414.73584031893
 54384.7540987386 -798148.785289458 -902.808165232908
 67868.6918261449 -797113.931700758 1794.59142078133
 86438.5591466128 -795239.765023547 11049.5075886911
 114381.523767273 -790861.759469934 38138.4901221448
 161465.968170328 -775692.157230559 110591.221775607
 247751.630896054 -705126.239987926 285335.092599625
 379192.708670828 -381118.694343130 592419.978151537
 378682.944979014 383768.445972547 591033.845949484
 247245.217636732 705780.641194245 284153.987955837
 161187.448586735 775827.968672741 110043.488872477
 114226.798723891 790894.806895555 37916.2614050294
 86344.1973746279 795251.325935666 10954.8243845949
 67806.0567832385 797119.338627296 1760.29823885463
 54340.5403533932 798151.772150972 -924.276130479330
 44035.4211520713 798785.865864475 -1422.03343858427
 36078.2887594232 799184.934528230 -1340.70999886338
 30586.5519203608 799414.127151742 -1231.32117659340
 -31139.1609509546 -799392.799124543 -1226.93239382303
 -36733.6615942997 -799155.086980977 -1336.06074092433
 -44843.6757670421 -798740.909233664 -1415.86026144070
 -55353.5143077156 -798082.172651377 -913.318040788864
 -69095.2383331837 -797008.572828559 1784.06206821413
 -88022.6524880018 -795066.538449575 11009.6360879118
 -116490.928666518 -790558.776205841 38035.3112559265
 -164399.074019873 -775124.593200567 110248.852497722
 -252001.056985643 -704072.216262013 284214.323294968
 -385074.981403231 -380002.389008869 589334.746171352
 -384558.819661844 382646.621996044 587959.247648428
 -251487.341567795 704729.786237072 283037.180280991
 -164115.452366589 775261.543670301 109707.142887109
 -116333.127637858 790592.926884124 37807.7687094364
 -87926.2352849137 795078.411491453 10922.3041914573
 -69031.1991462675 797014.214615954 1742.19532275155
 -55308.2881183339 798085.291811881 -927.501463568839
 -44810.3694281207 798742.754821224 -1429.12991641919
 -36708.1975307625 799156.247541296 -1341.73386265087
 -31118.5023427708 799393.591617094 -1234.70379680437
 -92610.8745536175 -794620.525367944 -1202.73787076474
 -108937.638952337 -792547.069235763 -1316.76318764587
 -132328.795314968 -788978.440024654 -1452.96481446441
 -162094.244258890 -783405.451238777 -1164.02212546989
 -199830.099026505 -774640.174719360 728.857885043736
 -249256.269214269 -760143.668648254 7274.28837457689
 -317306.616594410 -733938.058966413 25523.2573552904
 -415558.587428683 -680031.811368738 69769.5918063963
 -555509.255934057 -553003.636517275 159988.888896259
 -705902.620474495 -248103.742721585 283100.729873279
 -705417.591394463 250039.950925045 282605.811498342
 -554797.871985354 553879.944059349 159424.994305580
 -415030.943439633 680387.257648653 69444.1906638266
 -316952.331801148 734096.309336256 25373.7656784123
 -249014.885794147 760223.458067875 7202.80891383533
 -199659.267179727 774684.248036277 702.049658238816
 -161969.049286864 783431.316342600 -1183.06669804857
 -132234.345114106 788994.263375079 -1459.56618876543
 -108864.342485548 792557.124934674 -1326.14119601871
 -92550.8246286411 794627.512138270 -1209.05479715803
 -153441.622606828 -785146.068960969 -1148.41060628789
 -179529.874810543 -779594.388821729 -1270.02684433726
 -216163.016688702 -770241.142964985 -1460.10274762707
 -261293.712713120 -756123.997505310 -1447.78906752905
 -315831.133476804 -735017.304030034 -507.841684661396
 -382319.418385551 -702725.284302374 3006.18154507811
 -464590.493397022 -651152.707160245 12483.0045660105
 -565960.259767620 -564428.595668452 33306.8274608515
 -681390.462915350 -413357.856628090 69586.7761276324
 -775762.680653067 -161812.634595777 109585.284555644
 -775497.170825995 163177.256053138 109440.948222530
 -680875.271459565 414242.520036204 69368.5758028687
 -565466.945236770 564931.533004905 33158.6619350631
 -464192.850688545 651437.894841133 12396.2306607335
 -382012.466505819 702892.357897434 2967.93590324235
 -315595.046255182 735118.686010696 -533.157665813339
 -261110.568278271 756187.244914796 -1456.62677728956
 -216019.341379499 770281.428337096 -1471.49887213336
 -179415.254675203 779620.766727773 -1275.33392907477
 -153346.077696565 785164.724178127 -1156.01097097591
 -213655.426118528 -770941.123542062 -1069.07521478566
 -248161.783131659 -760535.555227404 -1182.63597889150
 -295301.463721515 -743501.894825331 -1406.38368622196
 -351027.488807370 -718872.186585430 -1575.26362075486
 -414585.116111851 -684191.057684689 -1333.44772310373
 -486273.176650840 -635246.712084877 111.603107094541
 -566216.360544157 -565138.946690044 4123.58899439419
 -652169.838892395 -463162.604480675 12446.0053730478
 -734694.175904902 -315562.899078060 25387.4893769719
 -790837.055248064 -114690.881768319 37719.4072829308
 -790692.710496462 115696.967186540 37672.9259760290
 -734359.497692866 316346.892198008 25313.4735851190
 -651785.469440101 463705.154797624 12378.6607053992
 -565856.381502149 565499.652175303 4086.42911423768
 -485961.662390787 635485.055419411 83.8150960869090
 -414323.932928419 684349.232456440 -1344.11272188088
 -350811.330448347 718977.668250114 -1588.39122688342
 -295123.377048160 743572.592397055 -1411.43742797994
 -248014.480688921 760583.590445515 -1191.34949242268
 -213529.655294957 770975.959251706 -1075.43736664652
 -273691.631141350 -751725.979732431 -970.792719219388
 -315062.221999826 -735346.620726618 -1069.41782138945
 -369720.950534080 -709439.764237847 -1280.48987616199
 -431283.284161358 -673789.572948885 -1529.76741758849
 -497244.778638645 -626693.678143126 -1632.14338929134
 -566095.914036956 -565273.218623563 -1266.65607801195
 -636037.524928099 -485238.350238526 101.691356947644
 -703395.354328677 -381085.471620024 2973.01681422210
 -760592.625393330 -247885.232759740 7195.10784712106
 -795213.711497442 -86701.4138547985 10863.6035477472
 -795128.997923341 87476.1488554346 10853.5728148057
 -760375.733755082 248550.645845402 7163.79552011911
 -703113.456209286 381605.507093747 2950.36491917317
 -635741.668536615 485625.910336313 78.0788619684949
 -565813.616157873 565555.763767595 -1276.65171559520
 -496988.017670269 626897.281662182 -1645.76327028428
 -431055.964885494 673935.011410199 -1534.77430588632
 -369523.087477840 709542.826971305 -1290.16061454590
 -314891.292904767 735419.824591857 -1074.82558930140
 -273541.297844762 751780.686745660 -978.473109838411
 -334193.611878054 -726852.030906109 -868.877186216686
 -380714.641448049 -703601.788113690 -941.036823386227
 -439772.058628673 -668280.838977808 -1121.02837454585
 -502777.277389235 -622264.545675686 -1358.13699619605
 -566017.202799063 -565351.243797927 -1580.27581799974
 -627333.057386376 -496437.869653019 -1636.05764996367
 -684757.040109838 -413649.595658380 -1344.63068285567
 -735465.291421422 -314786.470342464 -532.168898120105
 -774918.021201948 -198750.077599937 683.425544723855
 -797096.220012760 -68078.5112456955 1712.40997998026
 -797043.554989200 68692.5616590816 1703.94333584856
 -774774.943069517 199307.123936221 676.712566716789
 -735263.496279000 315257.499772220 -547.610217025410
 -684526.387685999 414031.156760496 -1351.21912517292
 -627094.439076347 496739.214571717 -1648.38896973618
 -565783.414287892 565585.198382129 -1584.76742244871
 -502555.863419842 622443.356780614 -1368.11623028839
 -439567.454176194 668415.428789719 -1125.95955318170
 -380528.784683568 703702.310941067 -949.528014343184
 -334024.198965766 726929.891594788 -875.905969214050
 -395589.222986020 -695347.801021894 -776.061425039748
 -445304.554092264 -664607.536006599 -822.914289850885
 -505496.222150586 -620058.593187247 -954.152051713204
 -565968.755057602 -565400.784034201 -1149.65736595436
 -622802.147937187 -502111.177022253 -1360.30663979371
 -674269.970838979 -430531.821631942 -1535.24821607241
 -719275.720544486 -350199.832982956 -1585.81648333258
 -756422.980492881 -260426.814303514 -1465.93792113705
 -783584.334597341 -161227.070900493 -1192.55292957351
 -798136.853116077 -54558.7263110580 -953.457539413081
 -798102.863086451 55053.7392642443 -951.696503400497
 -783488.683986516 161691.187473119 -1200.81581046315
 -756280.421147356 260840.503721362 -1468.40306572383
 -719102.087531939 350556.189604231 -1595.50536505328
 -674078.113653972 430832.136112541 -1538.56602326015
 -622601.278400121 502360.201689823 -1369.63232119833
 -565765.572715790 565604.088258991 -1154.15522772777
 -505296.126728789 620221.651456714 -963.004251870839
 -445111.999186894 664736.504446518 -829.358831175471
 -395406.001396479 695451.995913938 -784.499183787503
 -457374.214653794 -656359.905013459 -709.126610155980
 -508018.733578560 -617993.879652021 -728.728947728633
 -565941.644221969 -565428.498325726 -817.689702218390
 -620531.824098126 -504915.183139407 -955.571427062752
 -668699.362455660 -439135.398541945 -1124.45489043526
 -709796.397236518 -369035.796314254 -1286.66575420542
 -743784.362720563 -294589.232610698 -1416.26346655432
 -770443.641333980 -215440.062286044 -1474.81870869878
 -789094.754618494 -131633.190540748 -1473.56087150651
 -798776.464922199 -44204.9532886191 -1442.63340651004
 -798754.045176853 44608.1012696184 -1446.58727127154
 -789030.263713847 132019.212537014 -1473.24972897570
 -770343.787654575 215796.788758964 -1481.48011207399
 -743656.904251164 294910.829441341 -1418.25166866363
 -709647.937749929 369321.173012803 -1294.45421731501
 -668534.771416791 439385.919490431 -1128.34402853599
 -620354.709937531 505132.759366158 -963.988305672266
 -565755.396913089 565614.844452021 -823.771344645715
 -507827.476119548 618151.041720928 -737.643126495101
 -457182.520284368 656493.433271908 -717.786387791857
 -516860.963097492 -610617.948925121 -682.111729130356
 -565934.090786267 -565436.241838974 -679.191386202180
 -618437.240230825 -507478.913341191 -729.664117417531
 -664990.000326578 -444733.199169271 -825.240767641194
 -703924.017579511 -380118.513108662 -945.233717309548
 -735607.066535817 -314453.630693087 -1076.01417568278
 -760735.455894899 -247548.267570147 -1192.21113828411
 -779732.146453744 -178930.526336635 -1283.17244816367
 -792625.277226764 -108366.925366188 -1333.93698272251
 -799178.591288606 -36217.9070774640 -1357.36247431230
 -799163.480920736 36549.8547483306 -1356.05329090737
 -792581.144196399 108689.190618283 -1337.79933787781
 -779662.017471867 179235.847348120 -1284.34306150077
 -760642.813514170 247832.756448102 -1197.94848897363
 -735494.716854464 314716.311010680 -1079.38084141241
 -703793.515738610 380360.066377056 -952.423186988491
 -664841.786498897 444954.726265010 -830.962927087276
 -618271.365775970 507680.975800051 -738.290069042656
 -565751.622362450 565618.801750908 -687.677338758983
 -516666.357380393 610782.609256352 -692.373655213430
 -565946.773719443 -565423.516416105 -704.556741259721
 -611072.330563647 -516323.678416960 -682.587351900097
 -656740.909008782 -456826.962348364 -710.567298377768
 -695661.727614411 -395036.902100036 -778.917029166107
 -727105.469042896 -333641.834510871 -873.585789886494
 -751925.047219291 -273144.224309517 -977.798865074534
 -771089.242385223 -213120.192398988 -1078.82788310856
 -785246.585617458 -152926.293068705 -1161.32010627379
 -794676.507462428 -92129.0524005281 -1219.09437665080
 -799409.662789114 -30702.3866089418 -1246.79425316950
 -799398.760882564 30984.8893873525 -1248.09017103599
 -794644.390637217 92405.6472174948 -1220.16028601281
 -785194.693711806 153192.480727361 -1164.82420130768
 -771019.152501150 213373.605437069 -1082.11792022147
 -751837.708756666 273384.514659171 -983.278239876397
 -727000.701323131 333870.045662483 -879.138787041670
 -695538.045629498 395254.612309129 -786.466947116584
 -656595.777874297 457035.521395725 -718.790780562769
 -610903.135884462 516523.841377701 -692.715638564989
 -565754.049448482 565616.338954779 -715.988853706067
# End: Data Text
# End: Segment
