# OOMMF OVF 2.0
#
# Segment count: 1
#
# Begin: Segment
# Begin: Header
#
# Title: Oxs_TimeDriver::Magnetization
# Desc: Oxs vector field output
# Desc:  MIF source file: C:/Users/Victor H. González/Documents/GitHub/Intro-to-magnetism-in-python/vortex_dynamics/drive-2/vortex_dynamics.mif
# Desc:  Iteration: 901, State id: 5703
# Desc:  Stage: 128, Stage iteration: 6
# Desc:  Stage simulation time: 1e-11 s
# Desc:  Total simulation time: 1.29e-09 s
# meshunit: m
# meshtype: rectangular
# xbase: -4.7499999999999995e-08
# ybase: -4.7499999999999995e-08
# zbase: 2.5000000000000001e-09
# xnodes: 20
# ynodes: 20
# znodes: 1
# xstepsize: 5.0000000000000001e-09
# ystepsize: 5.0000000000000001e-09
# zstepsize: 5.0000000000000001e-09
# xmin: -4.9999999999999998e-08
# ymin: -4.9999999999999998e-08
# zmin: 0
# xmax: 4.9999999999999998e-08
# ymax: 4.9999999999999998e-08
# zmax: 5.0000000000000001e-09
# valuedim: 3
# valuelabels: Magnetization_x Magnetization_y Magnetization_z
# valueunits: A/m A/m A/m
#
# End: Header
#
# Begin: Data Text
 512873.233894081 -613969.871471013 1429.29384504991
 564990.439320859 -566378.244429820 1219.71825364582
 618760.137377390 -507084.721780015 988.600019792397
 665687.635657443 -443688.368513981 776.774231027789
 704674.161280201 -378726.785907901 589.966029371397
 736426.686874042 -312530.835260708 460.294433435494
 761743.124744508 -244432.531172050 386.793611665861
 780927.613731212 -173643.056960313 388.434745665667
 793735.626135226 -99917.9036077247 410.295452171552
 799639.427182767 -24012.8036862775 414.432069186422
 798284.072376017 52368.2450931432 326.644494213875
 789820.441983899 127214.902332301 195.061377530523
 774818.464550939 199139.007434130 52.0487753106029
 753844.508687289 267803.018141640 -14.0089218383136
 727040.840938974 333783.784825487 -24.3787297209836
 693944.036879937 398047.323464266 44.2912072425199
 653609.786329218 461296.248914193 133.986448124203
 605245.566806954 523142.178846152 254.111454466507
 549966.720051141 580978.893837627 362.975753545108
 496481.125457471 627300.791363672 457.404629593736
 462091.142050796 -653047.092072468 1127.81819664682
 515055.640811293 -612141.125864483 963.791384427274
 573728.967568768 -557525.298846362 782.891275679449
 627659.812496876 -496027.025431847 591.453819743649
 674547.334928001 -430099.628601529 449.909277362673
 714360.050323878 -360124.411956133 355.548190918473
 747349.010550477 -285428.270308252 398.670367405784
 773256.378923501 -205120.177553018 534.054991367612
 791086.662566933 -119085.344153446 757.044626942056
 799481.578710198 -28783.4342890559 848.064606937280
 797550.901144675 62545.9590469554 750.393372540655
 785601.128733284 151098.254648020 428.923433467862
 764936.384989503 234248.386575080 142.499689309562
 736963.327010668 311263.629937415 -85.5543749489418
 702493.271327075 382757.349451036 -123.212834122345
 661549.467461665 449835.847826216 -110.052974778948
 613710.361502099 513185.728676047 8.25812358972663
 558948.151211821 572343.388120645 101.643825710421
 499626.924443131 624798.278097236 219.221865383891
 446354.181131926 663903.503565198 287.992886784159
 399921.932067300 -692864.955152832 775.997822797096
 451293.989697456 -660555.297696824 658.443325104014
 512364.703199327 -614395.770050446 498.657784916071
 572507.169916987 -558780.282571731 369.056499601400
 628295.034946201 -495222.448837201 274.280215896773
 678639.764328573 -423612.942552778 381.016844913928
 722881.969367197 -342696.844680685 728.704127695360
 759620.054638284 -250948.713800019 1454.52172393025
 786204.654448501 -147908.724929989 2291.37799102314
 799179.386285369 -36112.7959215628 2859.10952357238
 796179.621085414 78047.4538783998 2570.19676003700
 777922.590922031 186637.360879166 1714.07619870631
 747625.684136657 284702.169070246 715.084534701165
 708702.959076140 371133.543739406 92.2396533151914
 663351.283210926 447174.470390467 -260.947165791355
 612536.163068497 514586.603764453 -275.970086084307
 556650.086271705 574578.648734444 -240.566426181139
 496681.990048559 627141.923313168 -93.7254657369542
 436050.357176093 670716.099312800 -11.3676481522573
 385291.055338004 701106.837838275 67.9186475302752
 334538.352251118 -726693.820483263 426.783957647173
 381991.844914783 -702909.758346213 319.437427397910
 441640.552356159 -667048.408067188 209.307376881304
 504507.339657476 -620864.181910833 108.866555747509
 567142.516328756 -564224.522189093 233.950372399884
 628008.500902712 -495585.273473384 748.004171047570
 685694.875811447 -412089.957709081 2098.58077082431
 737452.067986542 -310072.739376041 4398.14940738299
 777761.203275306 -187172.070811269 7357.07740683515
 798596.808838073 -46434.4213492935 9326.38341497150
 793722.601042243 99647.0845730082 8653.96619114221
 764922.904530030 234220.367862283 5811.14479253735
 720108.924974385 348474.684760994 2920.65967908810
 666685.464345713 442187.464491504 858.997505832789
 608993.397628652 518774.548422805 -97.7416292270808
 548924.888905929 581963.243152647 -499.958866549772
 487446.109715605 634346.972360800 -456.924290746346
 425910.000853413 677200.500541257 -391.458448858075
 367665.409505955 710508.330450324 -242.926970691747
 321452.734570656 732576.346160792 -191.004586794615
 268657.145633010 -753540.531026792 78.7412474204208
 309985.673483820 -737501.784563557 -0.593700004019786
 364304.301093802 -712237.574804069 -115.072918535900
 425094.343022350 -677712.916216162 -52.1937047117561
 490176.048750277 -632239.881779127 416.076294399018
 558766.006465728 -572517.583118278 2041.33259106241
 630054.871292881 -492948.779562096 5688.57524797548
 700892.210656683 -385481.581130122 12412.0767887163
 762317.224921783 -241687.090104103 21442.9257463060
 797113.943279536 -61704.8715550685 28317.3137094968
 788778.978640101 130945.215358149 26097.3835908493
 742053.212062659 298422.114647761 17357.1874636546
 676251.116134403 427326.350857508 8753.15884581497
 605694.927985646 522611.438629692 3307.32911389842
 536568.705866523 593374.896485111 506.069174048321
 470604.825475147 646939.627101649 -465.966827639675
 408075.579817845 688094.282576695 -761.210611394258
 349612.870284147 719562.674956499 -630.667209064595
 297333.782398278 742692.618435346 -544.395429855350
 257553.130891075 757407.543713105 -444.403740736953
 202983.235302044 -773820.228165123 -246.310355587536
 236231.000442230 -764326.369266840 -340.107974194400
 281446.302885001 -748857.690247989 -371.952699992901
 334703.606617132 -726617.831735384 -149.404329091289
 395609.630665534 -695335.714862783 1124.17122432024
 465478.062679672 -650620.749852293 4776.29831759136
 546209.319024660 -584354.685308916 13600.7929231044
 637771.901983942 -481968.072093766 30883.3049073853
 730384.607022757 -321347.991466841 57217.0796566985
 791260.763441654 -86665.8609734508 79971.4497771660
 776022.305986749 180234.527049087 72834.7161070897
 698165.785429560 387923.478617878 45606.0389919055
 604335.209931143 523722.295236412 22224.1200002367
 517430.215812908 610076.737474729 8505.65435446342
 442048.346500355 666774.587913272 2215.46143925133
 376735.603775522 705740.887006117 -291.985806561175
 319444.458750293 733453.793427132 -877.884435091190
 269026.881934370 753407.989767744 -968.375339172988
 226019.631760553 767407.656871980 -783.730234542718
 194300.095042465 776045.713583898 -723.529231308087
 137571.225112998 -788082.378924842 -567.493675310050
 161059.397215333 -783619.470549768 -629.240760946148
 193776.361038890 -776176.715347895 -654.564188934288
 233737.798695248 -765092.567797788 -64.5111506842925
 282027.453151934 -748635.786138257 2230.55638521100
 341924.122447258 -723187.981514297 9329.40951771658
 419543.097354360 -680616.332283258 27294.6458411662
 523002.774696726 -601647.750943367 66993.1447561151
 652607.004875915 -441790.456567250 137569.217752335
 759981.420825415 -132440.033174251 211867.594532498
 731068.968424741 265200.531588398 187634.862036926
 604093.269638196 513626.988467275 106106.730681294
 483005.789046621 635977.183969542 47312.0409369898
 390746.025777466 697859.779907677 17586.1003728479
 321328.391597435 732614.894784256 4845.68815126270
 266904.290961701 754163.104354279 333.911587562878
 222299.476580199 768493.185340815 -1080.18373361742
 184909.840715007 778336.042602699 -1164.29906847545
 154024.484660474 785032.005838797 -1099.06041277974
 131727.510225649 789079.798121520 -967.081306485876
 72494.8980332629 -796708.077141907 -854.152206562819
 85011.0445261151 -795469.811435446 -949.422685513867
 102473.550252173 -793409.353621120 -876.975046586729
 124031.238730847 -790326.667906823 -99.0665983531280
 150619.752439444 -785685.835137729 3385.06115296668
 185285.991544961 -778118.496960926 14167.0753675933
 234751.492238458 -763509.057672675 44109.5878874547
 313128.522316019 -726536.695770390 118722.189211753
 441198.075182764 -605982.764899608 279515.915646412
 588226.488478821 -215681.726119243 497464.562828448
 544506.887889011 407028.583991882 421710.778680113
 389162.021031725 668279.820054692 204829.205666998
 281430.455168737 744430.052903790 81368.2692281151
 216273.842589818 769699.555893872 28075.2322913130
 173761.143452537 780862.404912680 7808.30455682612
 142845.441159407 787143.337632290 738.891787223438
 118449.437776912 791181.702574429 -1115.43792396542
 98283.0813763434 793938.394531951 -1503.86275933550
 81753.8921972176 795810.657636970 -1303.18917244841
 69825.2890716000 796945.991959386 -1230.81515143530
 8159.06240853615 -799957.586579645 -1135.50617851269
 9107.25692308212 -799947.244478122 -1209.92693821485
 9902.35758997625 -799937.751818764 -1239.56819201560
 9914.88611616238 -799938.483046840 -344.055263240496
 8579.84454562049 -799946.949847932 3356.14310822933
 5014.95113409744 -799829.384619178 15741.8475672310
 -2011.50604667566 -798346.050366458 51376.4314418745
 -14988.4596532114 -786213.403132419 147118.424448349
 -38364.4333296844 -703882.538626315 378255.921397491
 -69476.8359908659 -280574.533308842 745956.366364162
 -57452.2111642136 510743.741477378 613057.969505357
 -26259.3001248745 753295.106479124 268061.432719362
 -7487.51052811569 793864.448616046 98606.1580715552
 2758.47287596611 799338.616251119 32406.2863830398
 8211.10955843439 799913.474609194 8426.79170656983
 10796.4233524744 799926.823186967 717.487840427022
 11482.1184429885 799916.154486148 -1518.79825989644
 11031.9210992202 799922.147375363 -1689.63169048195
 9946.75603632374 799936.555212494 -1603.02187197176
 8829.75219440135 799949.990192808 -1431.31642641550
 -54805.2915708150 -798119.368759527 -1361.33270435364
 -65169.4300818745 -797339.738128069 -1512.41021759966
 -80798.1321949303 -795907.773468408 -1574.15576492036
 -101955.743635414 -793475.780690118 -1100.81695026506
 -130831.865311051 -789227.237123684 1841.52147618660
 -171596.079787805 -781296.508382396 11425.9087575282
 -232390.821246003 -764525.462210334 38669.4172788262
 -328010.305817357 -721863.580608131 106405.875163043
 -476990.057740894 -591640.849117785 249883.153636908
 -637507.660947387 -204059.700015268 438113.707915046
 -588369.315029996 392507.451757299 373844.151279815
 -414232.123233179 659220.407716338 183957.066001928
 -286188.162593904 743509.682644298 72730.2372146639
 -206057.623704364 772631.325703446 24105.8137188223
 -154302.026839070 784957.075751788 5768.33949738315
 -118899.319574128 791114.859258418 -480.900553760050
 -93384.4803978593 794528.644748896 -1889.83975668014
 -74444.4345399069 796526.023752969 -2078.37684684392
 -60306.3753669508 797721.811703250 -1747.06124273440
 -50854.2996009041 798380.322278663 -1643.53591943256
 -115794.563355464 -791573.861010036 -1562.58215217438
 -136534.602167087 -788261.015068053 -1695.44535699772
 -166681.010689739 -782440.722027299 -1989.26841974753
 -205679.648997684 -773105.754354786 -1837.00073672535
 -255558.799540931 -758082.792904391 -423.177830651606
 -320502.466928084 -732974.530838194 5148.38183730251
 -406677.075232019 -688631.330692011 20016.1652191763
 -521030.826999237 -604681.801782162 53728.9113045251
 -659862.614863304 -437874.626769739 113345.228117577
 -770053.243218941 -127972.393630261 175045.905626298
 -739846.968305063 261721.861817977 155332.322896228
 -606705.406853141 514111.327111322 87167.0386728823
 -474795.948014854 642798.271685255 37137.4429265884
 -371961.993451108 708166.275001964 12033.3859623712
 -295074.568572647 743591.725988471 1531.02029829965
 -236760.912845851 764160.502033773 -1731.26540172240
 -191554.026493336 776724.269564545 -2542.44048405546
 -155879.262648185 784663.469817937 -2212.37644486481
 -128086.086048265 789677.171992178 -1979.54420824666
 -108839.126555734 792559.735257853 -1763.68324449504
 -174596.746553536 -780713.238533877 -1677.87689220013
 -204268.251703394 -773479.769402731 -1878.20944965871
 -246253.479965889 -761153.425588790 -2164.79078417948
 -298230.711461045 -742328.868607307 -2508.69959042222
 -360981.699090711 -713924.390255477 -2043.99606869614
 -436179.026893421 -670632.418046448 127.919824193266
 -525470.543257055 -603188.269579892 6679.79119077318
 -627081.962033682 -496348.107921357 20168.5065108332
 -728241.727715431 -328557.484203935 41400.0674833248
 -792994.315939924 -87190.2618288378 59647.9096799790
 -776492.629605325 184740.669273077 54130.2252456364
 -692336.903590848 399544.384190051 32154.2685880042
 -588601.382684124 541632.224326924 13525.7485192934
 -491604.683913201 631123.505109917 2820.64750979365
 -408375.920920687 687914.873311388 -1494.75387854049
 -338708.406944198 724753.736349529 -2938.82846069501
 -280507.892991191 749204.754468101 -2749.15478564076
 -232132.335691428 765577.218753790 -2469.99021324305
 -192894.725062900 776393.981185128 -2002.75370777146
 -165054.475661071 782785.703080249 -1887.62215746996
 -231478.169517859 -765777.211299467 -1766.26472304811
 -268534.253868858 -753581.950095400 -1897.10028988156
 -319349.254660116 -733492.106992394 -2320.02756182233
 -379594.157045621 -704202.435201896 -2684.43523754014
 -447964.870039008 -662810.930818671 -3024.10287869906
 -523792.931300587 -604677.727627743 -2410.56642465068
 -605175.700885537 -523222.899517870 -410.460487347824
 -687094.994131357 -409733.916789881 4311.20304001630
 -757737.245924776 -256351.318896219 10875.0833791991
 -797208.075576200 -64780.8216363435 16208.9291506983
 -787601.295493105 139552.392310295 14468.2112943076
 -733993.873496470 318101.345174147 8032.92400351618
 -657725.905319019 455405.100477239 1681.64550131303
 -575878.457084630 555302.511426393 -1767.33397098350
 -497200.064148808 626722.471938957 -3322.55581489752
 -424917.462008696 677816.005042268 -3257.88100269246
 -360103.555125262 714364.317102074 -3008.66040537095
 -303076.387890743 740364.107263155 -2385.74506853290
 -254958.249442186 758282.151248126 -2114.27053370685
 -219818.840653327 769204.785121732 -1917.24793832879
 -287194.647442986 -746669.976526803 -1783.43308352721
 -330022.209192044 -728753.439749886 -1940.48775085620
 -386878.394446582 -700228.670605766 -2217.37956070762
 -451088.606887650 -660690.117602946 -2763.55531245812
 -519738.316099010 -608163.077830865 -3123.06609857860
 -590349.243313220 -539884.956915099 -3464.71013064425
 -659927.557099445 -452202.020448068 -2992.00324897375
 -723412.808215096 -341570.009628701 -1958.93659862760
 -772957.020071718 -206246.078923598 -7.10566583578268
 -798377.934227169 -50904.8014459555 1172.74417780994
 -792351.817339352 110353.151685370 882.877190105921
 -756955.202643686 258877.595112037 -1100.88131252099
 -701613.141608062 384359.277884420 -2635.34191963538
 -636020.729631112 485246.211062965 -3707.57717986821
 -566728.667568119 564628.617696328 -3625.11169457692
 -497718.592553132 626310.085444681 -3446.66464942338
 -431290.241313787 673781.102836998 -2784.45816172527
 -369493.159961454 709555.369899090 -2445.76962632592
 -314929.863188812 735401.280633890 -2034.13714106601
 -273873.199933073 751657.891941271 -1970.74626058836
 -342733.792962037 -722862.554514136 -1809.54224984505
 -389773.855103856 -698622.121926892 -1863.49989149697
 -449887.609176404 -661510.679142897 -2181.85458773306
 -514484.828990399 -612616.610300770 -2499.90446091293
 -579370.370752511 -551652.645240860 -3054.91290515657
 -641732.164631030 -477670.044847918 -3340.22947709144
 -698700.341616175 -389620.532916651 -3697.69592925203
 -746920.079945921 -286527.985937645 -3479.57584988987
 -781906.160792731 -169149.657766472 -3339.01061058602
 -798935.105785783 -41160.5301396487 -2916.76219165128
 -794971.344536329 89499.3861622744 -3228.19495683895
 -770909.238199917 213745.476361587 -3437.70170048527
 -730930.712583343 325153.573593053 -3930.26488570817
 -679860.905351711 421633.953005822 -3736.18080893291
 -621754.276175248 503396.835966566 -3639.45004666894
 -559465.874646665 571829.251342760 -3040.13398056884
 -495467.022960750 628096.278271729 -2737.58645761977
 -432269.919545000 673155.046139257 -2236.18286658842
 -373781.075513934 707307.147460698 -2075.26833406398
 -328164.706014436 729591.708377427 -1965.90777160613
 -399075.871019047 -693350.689845238 -1808.33114221829
 -448583.600831793 -662396.625064093 -1861.22768197282
 -509255.780508379 -616972.116709438 -1989.27672238948
 -570937.973326037 -560378.708519534 -2352.37164076606
 -629286.245353898 -493955.456343759 -2613.15070794043
 -681836.762633020 -418436.468473343 -3090.46496177003
 -726956.506037008 -333951.462988639 -3264.76618065467
 -762875.323924228 -240848.911664751 -3611.35672690633
 -787656.383158448 -139946.302178129 -3529.10419487802
 -799275.960531786 -33823.5089891064 -3729.49804315792
 -796597.523872110 73617.5273189996 -3583.94088389038
 -780020.522501634 177633.200555771 -3798.75461051977
 -751257.341121185 274954.291860398 -3541.86378550221
 -712499.748057824 363774.222684365 -3524.75927193713
 -665579.860419717 443840.254732378 -3045.92888418909
 -612084.328622665 515116.139908770 -2852.55324744430
 -553493.098733334 577615.538214459 -2383.20536143927
 -492150.468754620 630700.390897329 -2221.04177442967
 -432256.410501867 673164.497264805 -1988.76903259580
 -383642.091912344 702007.607959799 -2015.85705863630
 -456699.778081065 -656827.130420426 -1852.95557850909
 -506691.610317016 -619080.262258953 -1800.25435306532
 -564991.033574374 -566375.686049623 -1927.23438608958
 -620961.882996503 -504382.953652200 -2043.50936401940
 -670801.380889683 -435912.756536989 -2361.37350263478
 -713251.324605679 -362306.773524284 -2519.88227269577
 -747787.629366989 -284262.796124495 -2885.15254056184
 -774075.715760878 -201985.339973654 -2951.05150933177
 -791515.565220104 -116157.833395184 -3235.39104835445
 -799508.306583926 -27866.9672462946 -3146.40108632447
 -797677.821193042 60819.4757842957 -3329.40565930308
 -786200.356774183 147916.550827129 -3113.35824379776
 -765724.394573411 231637.922135991 -3166.16229900606
 -736954.517918306 311271.725230639 -2819.85668766174
 -700467.646844778 386442.150723856 -2745.88194582940
 -656533.269208060 457119.693994702 -2377.34834792661
 -605634.878068808 522686.509318073 -2281.98235513748
 -549042.043311879 581849.356848069 -2039.75768300350
 -490579.721666952 631923.559932153 -2037.42284542555
 -440788.226365517 667608.798242514 -2057.18417469902
 -514977.268580915 -612204.812945401 -1918.29388469601
 -563067.801173920 -568288.025143226 -1836.23527341653
 -616096.126347070 -510315.907921711 -1799.22821612229
 -664070.598744517 -446101.493684164 -1922.81456651706
 -704573.944337150 -378908.427045460 -1990.19474537675
 -737429.711151267 -310149.073381638 -2230.11028205836
 -763114.320174979 -240106.722173597 -2301.37153261132
 -781974.430894111 -168847.428785726 -2556.40769057247
 -794175.962513325 -96322.6578642451 -2546.79170768340
 -799663.616516552 -23034.8487505209 -2737.91210767167
 -798406.840985626 50395.2638890770 -2614.12411781795
 -790481.150374673 123013.027659612 -2710.33731259103
 -776033.676406033 194333.593461687 -2487.47583007440
 -755162.401361560 264052.133251181 -2493.69110833628
 -727677.256209691 332386.524923149 -2238.04482743028
 -693179.604134086 399370.931507463 -2212.57302064511
 -651162.053336104 464740.652682866 -2026.33635256176
 -601831.779980588 527061.966387827 -2047.48450382198
 -547726.639693230 583087.802100306 -2035.48819616593
 -499015.461377026 625282.988756381 -2180.20149600363
 -571034.878630950 -560281.114562723 -2059.13848219328
 -614693.469966825 -512004.295610550 -1881.29117602457
 -660003.062719347 -452098.081126234 -1811.69618258222
 -698984.363051735 -389124.285263968 -1775.05689149769
 -730519.917351233 -326093.790332174 -1868.22374023783
 -755237.300581854 -263842.731926529 -1905.94317346548
 -773980.680691507 -202360.124390670 -2070.25913911769
 -787434.207841419 -141219.548612662 -2099.38343165164
 -795969.079487093 -80175.6498290679 -2256.03079650263
 -799769.658880904 -19067.3982159036 -2219.69790727481
 -798898.271479797 41906.7700909683 -2318.28538704956
 -793384.819961826 102643.400138927 -2204.50948289294
 -783210.784097610 163021.045328415 -2237.51049995931
 -768195.849170744 223317.703547656 -2083.41043502300
 -747930.629091004 283893.321589560 -2087.10909663848
 -721665.201466123 345246.966128803 -1967.07186348422
 -688487.726245473 407407.201723421 -2005.69021310141
 -647742.824259697 469494.621522343 -2008.47744941984
 -600630.660201574 528429.874098123 -2162.91157082841
 -555485.808389551 575699.565328001 -2350.99105865171
 -617005.196481878 -509214.636759917 -2245.26698342456
 -654204.055642182 -460448.687435241 -2014.89962153669
 -691511.110373657 -402254.816877184 -1856.48293713082
 -722819.512693763 -342824.573433841 -1806.63196452777
 -747580.138717748 -284816.953204530 -1799.82278091355
 -766582.147676790 -228797.563558831 -1867.02243788779
 -780748.514873964 -174436.478726999 -1916.09274935321
 -790763.396857903 -121198.988279234 -2013.80978253487
 -797053.056375341 -68572.8248525098 -2047.68515046275
 -799831.642669459 -16274.6664802688 -2116.27399711834
 -799192.467561230 35874.7961069048 -2097.33108505138
 -795147.182363710 87957.3131543398 -2114.10541908553
 -787615.831200121 140203.793265765 -2049.09658945811
 -776372.049104717 192982.640787340 -2035.12252379568
 -760945.406685485 246897.138088069 -1972.62469390484
 -740577.777715851 302556.801410818 -1984.20601422233
 -714252.720601089 360331.860249381 -2000.40075078685
 -681090.455673128 419656.163575604 -2120.27450530358
 -641614.358288140 477834.358717276 -2311.03174995420
 -602203.490237138 526634.812163371 -2594.41011819345
# End: Data Text
# End: Segment
