# OOMMF OVF 2.0
#
# Segment count: 1
#
# Begin: Segment
# Begin: Header
#
# Title: Oxs_TimeDriver::Magnetization
# Desc: Oxs vector field output
# Desc:  MIF source file: C:/Users/Victor H. González/Documents/GitHub/Intro-to-magnetism-in-python/vortex_dynamics/drive-2/vortex_dynamics.mif
# Desc:  Iteration: 1594, State id: 10059
# Desc:  Stage: 227, Stage iteration: 6
# Desc:  Stage simulation time: 1e-11 s
# Desc:  Total simulation time: 2.28e-09 s
# meshunit: m
# meshtype: rectangular
# xbase: -4.7499999999999995e-08
# ybase: -4.7499999999999995e-08
# zbase: 2.5000000000000001e-09
# xnodes: 20
# ynodes: 20
# znodes: 1
# xstepsize: 5.0000000000000001e-09
# ystepsize: 5.0000000000000001e-09
# zstepsize: 5.0000000000000001e-09
# xmin: -4.9999999999999998e-08
# ymin: -4.9999999999999998e-08
# zmin: 0
# xmax: 4.9999999999999998e-08
# ymax: 4.9999999999999998e-08
# zmax: 5.0000000000000001e-09
# valuedim: 3
# valuelabels: Magnetization_x Magnetization_y Magnetization_z
# valueunits: A/m A/m A/m
#
# End: Header
#
# Begin: Data Text
 556400.031554648 -574818.628125784 -1596.76096476262
 602405.649980554 -526407.886332229 -1473.11871260302
 648856.048411286 -467957.047955311 -1424.67857506507
 688372.207644446 -407604.788464273 -1428.34299335902
 720315.241609692 -348057.035291481 -1500.96264998127
 745624.484362269 -289899.355827112 -1578.54696666701
 765433.539061051 -232612.592596878 -1696.77512798012
 780509.533686229 -175504.152332568 -1777.73421263738
 791272.435245539 -117832.250286761 -1869.22790257431
 797793.656694399 -59343.8471493482 -1894.50354804771
 799997.713091860 -5.32042191215655 -1912.85636866313
 797760.736572450 59785.7652905141 -1862.64650688245
 790982.218493254 119765.910481690 -1804.63680057867
 779541.977978465 179753.814092637 -1694.36966846375
 763140.844479826 240028.166685346 -1590.81246180401
 741223.885961838 300973.391923377 -1472.49236668634
 712941.632364690 362921.876055298 -1393.09786926420
 677585.066222581 425295.961679539 -1350.18932648391
 635875.580707296 485448.580415293 -1386.22975596603
 594610.544500802 535197.225447544 -1493.39938099132
 507520.047974879 -618402.212748948 -1450.57601721810
 556875.597216167 -574358.468309215 -1385.31824163743
 609672.640941225 -517974.339389948 -1361.84481460138
 656508.883283597 -457158.607682697 -1446.92478809945
 695661.550162680 -395035.066018349 -1517.97270582769
 727692.598653359 -332356.176292730 -1689.36236409747
 753374.828645583 -269115.558649656 -1784.28022528733
 773417.942682523 -204501.507277046 -1954.34340657220
 787969.817249103 -138201.220851032 -1997.41325222675
 796941.142767163 -69860.2271043420 -2088.93128133110
 799997.367313654 -159.170897312888 -2046.20523147628
 796906.942586705 70250.4927444733 -2047.71244777134
 787612.339440881 140225.062747963 -1932.49522399904
 772112.622207871 209376.875164039 -1850.07400595065
 750349.420987165 277439.936568504 -1681.67211140793
 721897.300412352 344763.478915168 -1559.25099624905
 686189.927937036 411268.019974550 -1413.69868699420
 642828.892509039 476202.904349351 -1344.93302596200
 593355.074397970 536589.234977402 -1322.34358069525
 546549.388138879 584193.314574691 -1391.95231699266
 448765.261048877 -662274.768945217 -1367.80637945991
 499066.834146736 -625244.379862628 -1326.84021354405
 556657.297175829 -574569.968967657 -1415.71939573086
 610855.285799385 -516578.709088034 -1502.37408575254
 658757.408532427 -453911.518841278 -1734.86796180135
 699675.856564357 -387879.085406062 -1873.72503051268
 733971.150794142 -318247.983625563 -2137.92427047090
 761602.607689403 -244860.240073183 -2220.53867413281
 782376.083655590 -166979.020655495 -2381.25695249282
 795446.467517540 -85202.5789987090 -2331.91891711260
 799996.355597884 -410.001477325780 -2379.69092365782
 795472.219499369 84963.1717569859 -2281.98372935536
 781934.443136898 169036.556200363 -2273.61036922272
 759935.342433545 249987.668581302 -2107.33900816376
 729918.572467373 327436.951308558 -1980.02145172358
 692206.639428252 401057.264258944 -1743.30622006693
 646796.800474318 470798.694511515 -1577.38468374182
 594394.942306211 535436.913427517 -1401.53487616273
 537871.918219741 592192.547328231 -1336.59250234940
 487769.341779965 634097.201510915 -1344.71393424771
 388273.455826269 -699458.337234169 -1325.88624630366
 437241.336922599 -669938.912388873 -1366.36501457922
 496380.659395756 -627378.777170297 -1452.90541260856
 555787.598821757 -575410.433872869 -1725.56836473841
 611412.753016378 -515917.389521407 -1921.62388389761
 661951.660043984 -449237.993188807 -2285.87854183659
 706413.214165548 -375465.651845879 -2432.10531185879
 744210.456598007 -293502.631539451 -2646.04792149949
 773750.501119121 -203233.331088543 -2524.90644660286
 793102.150802003 -104799.143587402 -2473.43821141206
 799995.877154192 -1186.45591618468 -2277.90663872616
 793261.285708323 103590.163031255 -2368.69574600790
 773432.498985524 204442.005203520 -2374.03061713758
 742180.308358168 298600.833257017 -2435.62386055650
 701528.282683893 384516.575623262 -2252.03586769417
 652887.093050652 462313.933298598 -2066.59281188151
 597682.587307669 531763.497468499 -1762.83557961350
 537652.715877092 592391.034860567 -1555.28994521321
 476976.044572599 642255.355062311 -1382.67771530210
 426190.019675134 677023.057814128 -1358.79259523179
 328787.880642959 -729312.502621517 -1342.78153513128
 374293.080599393 -707038.045402897 -1375.56107434672
 431948.614371255 -673363.025315819 -1621.93720022863
 493051.078382721 -629997.790700649 -1848.73414517369
 554240.903725662 -576898.412100741 -2289.70587744766
 613220.400058368 -513764.948562601 -2513.67872291159
 668833.490607757 -438923.741944423 -2776.79652662846
 718906.553889051 -350951.671979202 -2508.12885863486
 760646.586186243 -247815.661231869 -2041.80592248338
 789314.845275184 -130310.088278076 -1164.44028317766
 799996.176253474 -2346.54174467778 -782.126371171771
 789903.887024053 126692.260031886 -959.433324660290
 760682.095598374 247709.178792572 -1706.51046751328
 716987.110163334 354858.674330403 -2192.05659190318
 663346.777548473 447174.571304367 -2440.38825055946
 603428.044590204 525232.776077243 -2264.05305468514
 539695.610110063 590529.050427633 -2022.13475473977
 475009.491214073 643710.450073694 -1685.14761126448
 413453.311892768 684875.279864551 -1486.57840530217
 364532.033693774 712119.687625213 -1395.31632596143
 270771.395715347 -752782.192029292 -1350.04664254621
 311249.498381784 -736967.820311074 -1477.01829122354
 364283.965256074 -712246.028450034 -1669.61506458876
 423712.402922788 -678574.466657589 -2119.62491141010
 486585.826028879 -635002.716097245 -2405.08979344013
 551825.112945322 -579207.692724568 -2737.40964493296
 617640.994250085 -508442.767531980 -2356.77028776197
 682047.253690670 -418102.752754006 -1277.44766469855
 739932.303711582 -304136.090635603 1193.43913279942
 782971.902237824 -164129.178928502 4075.89626214805
 799964.840515931 -4648.47788401690 5886.05060150483
 784427.073845638 157012.276859427 4616.35498949298
 741098.536501654 301279.565439489 1892.78728283767
 680664.973988118 420350.842702336 -601.851468449760
 612488.554843748 514639.975640996 -1861.62768899451
 542053.391983488 588364.551348929 -2296.72705591408
 472817.853810627 645320.693977769 -2116.37472174279
 407046.262467460 688701.622465333 -1848.08681847964
 348136.079161663 720276.926939487 -1555.28278871141
 303254.808775792 740293.462851107 -1452.51997434069
 213867.197377556 -770881.890245017 -1390.38776576998
 247759.844828646 -760666.075327381 -1476.86713148908
 293797.904672336 -744096.371716770 -1838.69738765186
 347386.216683907 -720637.404323667 -2132.59177760973
 407823.617821573 -688239.372710119 -2542.16413829841
 474550.645362397 -644047.152514975 -2224.93224266556
 548050.387225326 -582786.465125342 -842.097903041387
 626693.475044220 -497236.822216533 3291.04375606606
 705667.034476997 -376720.253319080 10765.0913442291
 771042.099133682 -212282.838287821 20738.3203753976
 799511.840243156 -8283.24728503233 26687.1715514564
 774487.671927808 199188.670746761 22197.2853741600
 708898.058287539 370549.967246476 12500.5891778189
 626950.812959850 496901.761830587 4617.05735742163
 543844.177910788 586714.152786240 114.336625359773
 466191.315045176 650125.365159623 -1633.20314616024
 395782.995935064 695234.881238367 -2068.82530433289
 333543.073863471 727148.913991151 -1864.07059847398
 280602.553677454 749172.572266395 -1632.12543796815
 241867.931621530 762559.971340008 -1481.13572948915
 157300.509389098 -784381.699365928 -1378.20381257615
 183532.737738138 -778661.227741822 -1557.75156626190
 219825.385931860 -769203.224071033 -1788.79250817875
 264087.886769290 -755150.731626054 -2227.23738434441
 316187.231207754 -734861.277624357 -2130.13367469191
 378268.341106901 -704919.757399946 -1094.41465412631
 452386.889257267 -659799.766777841 3220.27763406924
 541596.603107686 -588630.587223617 13680.3248132365
 644283.220847525 -472963.759007391 34704.6682729985
 744580.525586292 -285267.996088636 64977.0061268941
 795249.988774380 -14894.9142968689 85764.7764670142
 752009.992772412 263974.818655385 69269.5162845492
 651294.703445876 462926.576583627 38912.6451929484
 544108.905274410 586236.026825347 16517.2653037595
 450212.859494104 661275.236536530 4841.76514276212
 371887.551064241 708307.589091504 -92.7298331444032
 307168.179877045 738678.028871742 -1574.46282305080
 253533.847561478 758760.383175510 -1808.05531645081
 210254.339719297 771874.689135634 -1605.27286492177
 179541.441002663 779591.337195140 -1489.27263447595
 100585.223290553 -793650.242337700 -1380.46836205207
 117889.221158154 -791264.766504622 -1483.51714165582
 142578.270663493 -787189.951871336 -1848.35262107984
 173241.225905974 -781014.497028366 -1957.82484515256
 211456.243472481 -771546.256148453 -1622.25762861054
 259383.047726979 -756781.981257374 1211.36122941713
 322443.086867424 -732074.655674059 9856.68560499830
 408009.720249202 -687351.913123142 32793.5314982248
 525985.156510783 -597036.276928630 82989.7533526113
 670762.042019596 -401991.362621019 168763.821252652
 762987.326296436 -27021.3774187528 238998.295126574
 685514.551585193 370322.807893369 181468.502828790
 537469.062561647 585219.519652868 92979.1407057030
 412989.336436443 684085.715920168 38295.4470371879
 322109.397228844 732178.144372483 12676.7945529956
 255808.747410117 757994.148738861 2599.08178328447
 205619.411485271 773123.550344115 -795.942059610499
 166725.986826460 782432.166064953 -1533.23959292834
 136523.438486266 788263.246905142 -1550.58777526112
 115748.015047609 791580.910790632 -1434.81162940002
 43348.3375809261 -798823.643459201 -1307.01168164138
 51086.1512702468 -798365.820224117 -1490.72004985987
 62070.4186493222 -797586.675861196 -1660.60753518515
 76416.3006266325 -796339.858752470 -1838.03172890087
 94498.4615106746 -794398.812889815 -752.895323180106
 118859.964153048 -791113.210011509 3492.54446272668
 152949.826644780 -785045.426062174 17607.6559539014
 205615.968792161 -771064.947430079 56399.6473598193
 293243.078224578 -728314.899471915 153511.902732625
 436936.764995629 -567666.200948279 356147.929512587
 562362.664784804 -48587.0180226017 566910.517573812
 456413.374984397 528764.555717325 389993.430396477
 304622.107696149 719070.017044550 173619.359779680
 209992.808565151 769151.116631711 65647.3924471693
 153789.849161327 784780.051315717 21655.3307949467
 117567.212059271 791295.543021817 5414.26286925436
 92390.4228643042 794647.081348164 160.834697963637
 73722.0674976365 796594.922847710 -1259.22878119383
 59823.8431218330 797758.834499536 -1396.34239280547
 50405.6378873944 798409.320090607 -1352.50198468790
 -14260.2926594414 -799871.921181735 -1246.49841879024
 -16724.1971061069 -799824.054132780 -1335.53800394915
 -19975.4366721250 -799748.900633941 -1636.41821068668
 -24178.5544388788 -799633.093919387 -1520.72816590991
 -28972.6175617938 -799475.059019957 -466.301034059863
 -35361.3871033673 -799204.476790640 4666.53832368094
 -43878.2297834895 -798530.340386484 20591.1736749881
 -57688.7975542802 -795156.163614807 66322.5308784595
 -82795.1701700447 -773595.545886097 186265.646810426
 -130683.667713534 -641094.709797613 460346.990934503
 -179067.566898963 -60692.1270534034 777336.009842988
 -138352.032666947 601427.595633751 509061.452348465
 -86597.0825289117 766547.972872544 211908.354206421
 -58726.8673975965 794099.590902501 77181.5701715454
 -43749.1169976423 798404.968058399 25209.5565529190
 -34360.6322370349 799233.840163875 6679.49767401759
 -27802.4403564801 799516.522739205 595.127914886936
 -22668.6709169045 799678.147792926 -995.641168600900
 -18716.4743490375 799780.012561305 -1274.79228915370
 -15894.6188041374 799841.148879837 -1223.78578775186
 -72116.6211000605 -796742.087734347 -1112.92130165467
 -84510.3279227954 -795522.701752472 -1278.85528018098
 -102170.363131817 -793447.683000999 -1411.11227712191
 -123980.518333628 -790333.127534575 -1542.26947816130
 -151290.150000087 -785564.166625155 -480.236896657925
 -185900.269790512 -778093.350571948 3439.11144537414
 -233060.266999060 -765130.196871552 16083.9603838340
 -301433.456153905 -739382.712858573 49508.3370454835
 -407190.183123750 -676479.578641018 128730.472108652
 -560892.854184453 -496738.792026127 280445.678556906
 -677802.162018848 -39183.5199349060 423141.679497644
 -579944.905184167 459269.510108541 304524.915295263
 -419649.479500544 665529.258033012 144793.373663822
 -306271.943130032 736813.375233879 57476.4902183016
 -232829.759925915 765114.544346275 19749.3524610944
 -182916.623005244 778790.041230298 5251.73389170209
 -146450.188268598 786480.879324977 410.867745598337
 -118633.774191445 791154.289970364 -957.644288218186
 -97103.6220731067 794084.146805468 -1119.98772985177
 -82292.5270694054 795755.456496713 -1092.44873507723
 -129937.890645283 -789376.427912963 -999.814995485515
 -151894.037323964 -785447.036726343 -1074.20818862867
 -182361.574805633 -778936.718372659 -1358.23607760289
 -219815.372289584 -769206.939023096 -1373.70444810514
 -264482.094366976 -755015.388090167 -992.726705188900
 -319079.523499633 -733611.506110080 1554.27994470972
 -387089.082614207 -700060.275611995 8812.07302221775
 -474705.061531475 -643365.180121690 27135.7617063538
 -586199.298508716 -540531.897587233 64773.8382268168
 -710268.579899707 -346533.049915139 124231.194648386
 -781658.955660440 -21593.9501486436 168946.673103699
 -721716.065270724 318585.485884349 132775.032720678
 -595968.524930829 528776.019758996 72231.8366068938
 -478516.685385109 640331.113486163 31588.7149092595
 -385659.096829286 700814.014085446 11259.6045340243
 -313473.435121748 736020.647942942 2830.41951346167
 -256417.736476645 757792.787978768 -186.835648380211
 -210357.662100392 771847.652084955 -925.184630627504
 -173734.706373824 780906.675117547 -1008.24503958163
 -147937.916159343 786201.954765686 -926.976292067772
 -187883.908449162 -777623.913344545 -828.456748103155
 -218300.404322692 -769638.876830648 -965.786418879256
 -259931.921876890 -756593.808454080 -1097.72416248122
 -308967.070037428 -737927.807619067 -1378.54089676804
 -365312.880846890 -711719.865998698 -1153.87613838831
 -429306.945446700 -675052.234623483 -164.684746578704
 -502785.371788562 -622249.980578095 3439.70725433669
 -586180.692341614 -544296.909281808 11535.6175464300
 -676629.310853912 -425968.872455087 26894.1516449430
 -758681.670217970 -249277.964135539 47567.0040228738
 -797582.135016420 -12088.9529938731 60963.8837194726
 -764271.651008221 230949.576335370 50508.7780062282
 -681959.144487229 417169.542398366 30021.6279602681
 -587750.956358997 542547.413605000 13824.5176989606
 -499394.986079450 624964.922525170 4847.00854278557
 -421616.898725451 679881.306737600 774.246670127713
 -354051.065144912 717389.362359253 -588.254653634270
 -296016.974897826 743218.076230617 -917.461934061407
 -247574.086243891 760727.538655815 -826.892475513944
 -212530.375431106 771252.402551518 -755.696781462596
 -246231.183468907 -761163.408033617 -685.972412527441
 -284097.628366145 -747855.596799724 -737.490379957001
 -334198.994117029 -726849.420827912 -975.588691026217
 -391152.583874013 -697852.736845855 -1101.72838437369
 -452643.158393521 -659630.566842218 -1298.63272389018
 -518229.688245002 -609456.520836471 -859.901966472536
 -586919.021836606 -543622.956493340 378.126701313537
 -657395.310644975 -455870.608834346 3659.71897814215
 -724510.534288245 -339118.127236173 9131.34629681492
 -777557.449260202 -187473.370574649 16066.9980192028
 -799719.646444180 -6981.86220797335 19993.5162316728
 -780097.674818524 176506.927939424 17114.9680724258
 -726952.428416290 333811.983157523 10475.0522719105
 -656965.316726625 456479.829534869 4768.42176226548
 -582342.506761656 548521.321096548 1251.04798017382
 -508885.604973680 617280.624400799 -267.936430097395
 -439325.517897865 668574.951498742 -789.653231681846
 -375079.635415945 706622.030276448 -757.247800178813
 -318664.794569377 733793.104153214 -654.980341440718
 -276255.714615808 750787.903656188 -551.240107202929
 -305586.674545886 -739335.190234170 -510.706755158824
 -349390.392568151 -719670.750560023 -603.630224560302
 -405525.748325590 -689600.161193064 -696.510926530127
 -465954.391378063 -650296.534266792 -960.560304049949
 -527683.422346566 -601289.543522750 -1044.33271416630
 -588732.245590520 -541657.655733427 -1151.94935307586
 -648124.130559830 -468971.915283819 -673.840553888261
 -703684.597051442 -380562.623103577 278.871072971536
 -751972.899848349 -273005.265880930 2209.68209173769
 -786580.140792855 -145853.840163406 4282.45488938384
 -799971.039150074 -3915.29326785837 5568.39292597605
 -787725.730690033 139520.670705541 4706.97936370111
 -752751.898469915 270844.534956464 2795.93171513635
 -702342.011624209 383033.805377597 895.904915306861
 -642964.110460975 476022.187074740 -173.411962900930
 -579062.969975231 551983.354219958 -673.399991370186
 -513237.280627324 613666.872951983 -680.305524140325
 -448096.189177928 662728.795549435 -590.587685145529
 -387327.108697143 699983.949984741 -425.008320521802
 -339710.385316736 724290.501806184 -350.857947754494
 -366221.115502283 -711253.791204954 -372.903263802735
 -414438.107903856 -684281.296915644 -401.756787723337
 -473416.897367490 -644884.588996506 -555.123181179404
 -533590.441952035 -596054.371875671 -652.706160762781
 -591008.836059736 -539173.219966092 -891.386960546767
 -644332.596415581 -474167.314193490 -929.164619095567
 -692500.289661078 -400552.571358232 -993.175528821548
 -734655.175939910 -316672.317776339 -644.685086680434
 -768661.972817601 -221717.686066766 -198.064009354368
 -791590.737505890 -115688.529030944 518.213794562513
 -799996.411574046 -2254.13407583215 812.618125007541
 -792052.782095531 112480.648143892 702.970739171524
 -768760.649658501 221375.356750596 122.311834319274
 -732960.908544946 320574.813658848 -308.856862610463
 -687729.368906627 408690.516797832 -613.696027929517
 -635172.210143902 486370.129852171 -600.207042409958
 -577035.249329488 554102.917116502 -527.517050751194
 -515220.736194784 612002.837169498 -346.830490547254
 -453880.699656021 658780.887346542 -230.101422214815
 -403292.254581954 690909.065968485 -141.268401231167
 -427650.475475626 -676102.815371652 -232.103422212431
 -478241.753787287 -641314.854175140 -287.660873674791
 -536928.299817528 -593049.645856324 -344.099907324309
 -592980.491622008 -537004.542617675 -507.704346168621
 -643323.511097082 -475536.024597870 -591.083222022810
 -687135.316417776 -409688.235944060 -778.627309446591
 -724613.274289216 -339020.619874005 -788.685049074335
 -755517.082760122 -263046.049601491 -844.657732954247
 -779283.709729407 -180876.922898593 -662.203224832595
 -794564.689445578 -93094.7983926310 -559.283906506455
 -799999.018385164 -1193.67243374441 -381.744540572931
 -794758.265855116 91428.1041912908 -447.905072811895
 -779086.493734306 181725.070905704 -483.616689849349
 -754026.944606665 267288.267192438 -590.786256974648
 -720568.784529451 347534.667947805 -530.411310933504
 -679427.787084624 422347.802170519 -464.907541828321
 -630898.700962946 491901.151212821 -294.208717657439
 -575900.035295523 555282.920452128 -166.134798166576
 -517542.575927699 610040.721102302 -26.4405965606392
 -466545.855374347 649873.035929125 44.7803919914133
 -487160.436063513 -634566.537788805 -136.576485404455
 -537947.966343154 -592124.951944122 -163.683951884191
 -592928.135937709 -537062.530310946 -253.277392239763
 -642281.054209776 -476943.333241897 -322.923037038460
 -684072.196209478 -414783.093353737 -464.586961612374
 -718745.814477008 -351289.298078871 -532.190789722132
 -747004.510834643 -286328.176732372 -660.304331526179
 -769438.592165214 -219006.422534332 -663.155733153686
 -786018.759501398 -148909.401246018 -707.059003534585
 -796398.308445349 -75824.4035812163 -627.795300905688
 -799999.423462052 -729.442514903004 -624.799169297877
 -796465.463521994 75116.2780907037 -556.940296617147
 -785805.479468714 150031.436990008 -562.451470642379
 -768235.898781419 223189.097533373 -480.172618243381
 -743934.921188631 294211.930155864 -416.161058101887
 -712679.759328262 363438.422762706 -271.115411536597
 -674034.098882139 430903.715019546 -148.075985254304
 -627742.321707058 495922.955209701 5.82323207670498
 -575569.171283052 555625.876341208 120.866062942629
 -526799.987229429 602064.555236841 211.618851320095
 -536593.332135437 -593352.837764019 -76.3228405594365
 -585169.012877197 -545506.381941709 -116.744138544166
 -634502.490966751 -487243.837663889 -177.807633337256
 -676788.170694281 -426564.998781099 -271.704192617927
 -711278.603355591 -366172.941935462 -353.557420172046
 -738905.166604394 -306625.089073766 -457.729000931906
 -760799.213454388 -247354.575842849 -520.208407931423
 -777695.207619018 -187589.493781788 -588.106371643763
 -789922.448773451 -126578.719068098 -593.972082643772
 -797424.738746877 -64135.9766342323 -602.109331869519
 -799999.666282599 -467.643556142746 -561.477723314861
 -797459.010723029 63709.0109513338 -536.786971491087
 -789731.141249947 127767.372826837 -472.208622796882
 -776792.704167810 191292.781188165 -408.187405620769
 -758458.412555843 254442.031240137 -298.599504694698
 -734249.402227798 317612.628105950 -183.836210196294
 -703351.627801714 381177.761587532 -41.7108913795419
 -665071.228469032 444612.474358718 93.3129807375466
 -620224.715168934 505293.232742583 227.240324262877
 -576057.737998781 555119.244615792 326.724534170314
# End: Data Text
# End: Segment
