# OOMMF OVF 2.0
#
# Segment count: 1
#
# Begin: Segment
# Begin: Header
#
# Title: Oxs_TimeDriver::Magnetization
# Desc: Oxs vector field output
# Desc:  MIF source file: C:/Users/Victor H. González/Documents/GitHub/Intro-to-magnetism-in-python/vortex_dynamics/drive-2/vortex_dynamics.mif
# Desc:  Iteration: 1692, State id: 10675
# Desc:  Stage: 241, Stage iteration: 6
# Desc:  Stage simulation time: 1e-11 s
# Desc:  Total simulation time: 2.42e-09 s
# meshunit: m
# meshtype: rectangular
# xbase: -4.7499999999999995e-08
# ybase: -4.7499999999999995e-08
# zbase: 2.5000000000000001e-09
# xnodes: 20
# ynodes: 20
# znodes: 1
# xstepsize: 5.0000000000000001e-09
# ystepsize: 5.0000000000000001e-09
# zstepsize: 5.0000000000000001e-09
# xmin: -4.9999999999999998e-08
# ymin: -4.9999999999999998e-08
# zmin: 0
# xmax: 4.9999999999999998e-08
# ymax: 4.9999999999999998e-08
# zmax: 5.0000000000000001e-09
# valuedim: 3
# valuelabels: Magnetization_x Magnetization_y Magnetization_z
# valueunits: A/m A/m A/m
#
# End: Header
#
# Begin: Data Text
 568381.461844762 -562972.829334505 -2026.63818043245
 612920.847218010 -514125.084875336 -1852.60559384561
 657843.221196372 -455235.421712516 -1734.11193669148
 695988.184891987 -394458.488135356 -1716.86596090415
 726704.224560691 -334511.612375210 -1717.90330989781
 750905.176939141 -275931.505874762 -1794.24404217217
 769641.012498506 -218287.342519937 -1829.74748487123
 783651.268073543 -160894.474194446 -1912.64748980853
 793316.489629766 -103176.031043028 -1911.51764655447
 798736.778419386 -44897.7692021244 -1936.26467556272
 799877.941664261 13849.4301620951 -1863.25605581593
 796682.046749642 72762.8723678442 -1811.29555353082
 789098.548812150 131608.042510912 -1674.33837819259
 777009.944161665 190402.468231226 -1564.21396995049
 760097.485700345 249499.192154983 -1401.90799418154
 737735.957257382 309425.285845552 -1284.46445350383
 709020.162853067 370525.381859735 -1161.92319304064
 673160.410962386 432265.930142350 -1107.58797461747
 630844.964164325 491968.921964517 -1100.45880586866
 588912.674646676 541461.435539695 -1172.80168450214
 519741.529308979 -608165.538853408 -1849.34115514226
 568314.357997185 -563041.605445500 -1714.94361505490
 620045.975762175 -505509.741237367 -1699.83977535675
 665698.786895652 -443669.145193652 -1677.71534885874
 703694.403613175 -380540.297186936 -1807.91050008296
 734516.866324445 -316988.338027670 -1834.84042177864
 758977.334677980 -252882.103861498 -2011.71362073527
 777672.002654886 -187675.856099163 -2007.31765960633
 790794.680518927 -120992.631956116 -2134.54334695424
 798251.175844243 -52828.7793654863 -2044.58651961113
 799832.110830173 16256.3336099507 -2079.92848719224
 795422.228218039 85438.9578108625 -1913.98663616538
 785049.217578476 153929.375935679 -1863.65326023312
 768757.835699263 221379.055286727 -1644.36350646627
 746410.794545286 287869.031178265 -1531.88601438069
 717544.749310538 353734.084994705 -1315.23755923835
 681464.088407074 419052.779434693 -1210.06593774161
 637751.967473817 482981.637587310 -1079.69289844008
 587891.494970761 542570.236614556 -1062.29989530392
 540759.178411763 589557.738048010 -1088.33411602554
 461083.421464305 -653757.687384822 -1721.81184212446
 511333.328144682 -615252.278540617 -1691.53157287585
 568513.316121546 -562840.835563376 -1674.28038410346
 622064.865985340 -503022.720237980 -1856.18722801822
 669019.865626521 -438644.216229903 -1915.97628487388
 708846.445777267 -370852.923182293 -2196.74215253828
 741734.934052173 -299707.053001238 -2229.34697423622
 767730.473630378 -224908.536642767 -2463.73790907197
 786516.265388590 -146241.448855972 -2367.04788543016
 797411.477211097 -64256.0737441399 -2468.40008979947
 799755.188674147 19658.7975132545 -2273.73461787134
 793283.705322613 103419.803966274 -2303.69642176163
 778274.346397711 185161.444799294 -2069.08169315183
 755278.610336672 263723.764776692 -1999.16480407102
 724715.649846231 338798.370672834 -1700.26391734875
 686694.946357879 410423.733711064 -1552.24135329585
 641175.077089420 478427.501229105 -1283.19408239595
 588705.158306908 541687.059386253 -1168.87822806292
 532198.000585168 597297.407472763 -1046.51778105937
 482132.179958749 638394.423069946 -1059.07573633765
 400525.159306468 -692514.793805765 -1690.30254314433
 450023.646035438 -661419.669031129 -1655.12166435741
 509583.722938764 -616701.737731928 -1842.82237080058
 568986.224685821 -562361.870370488 -1950.09517269288
 624313.202925294 -500227.546542086 -2329.44921536076
 674006.751272045 -430939.604826679 -2440.53918829707
 717206.621591785 -354410.620145063 -2788.23838467746
 753021.770698828 -270094.356654278 -2692.83440129561
 779964.238543739 -177899.067686095 -2776.38421402943
 796096.915590482 -78890.5227881158 -2446.71239430941
 799639.897161630 23873.3234521946 -2469.67501620263
 790007.819375520 126025.424304226 -2288.61409497012
 768147.445142408 223480.899288278 -2406.27814134583
 735833.540771382 313917.562071072 -2182.77328300938
 694778.887276975 396582.817399961 -2089.67396446146
 646236.537020740 471566.928771765 -1723.34216212443
 591301.093599048 538851.268610574 -1525.45906004634
 531700.474179726 597739.989135066 -1229.28673060816
 471436.104316668 646333.308543951 -1119.73807425830
 421028.380266716 680245.535814803 -1055.46862431627
 340785.445393775 -723783.453336222 -1671.19252598411
 387360.887861333 -699963.155546840 -1767.32345424184
 446094.723420854 -664075.265992243 -1881.17872762964
 508160.341454304 -617873.558720304 -2309.28719614773
 569780.464743344 -561554.912671493 -2510.38868935079
 628764.028326702 -494617.982476500 -2974.57446608828
 683444.346656393 -415806.934979471 -2901.35251129134
 731610.991076959 -323631.273669969 -2855.94785375641
 769975.828431428 -217101.077551092 -2084.64804951464
 794011.911700336 -97686.6240959622 -1551.62840664318
 799468.776516140 29130.2372275852 -1051.02561835090
 784987.536556143 154247.864655000 -1470.95237537280
 753169.551280422 269689.289865900 -1820.42733297906
 708506.147380450 371502.189971790 -2271.99698013595
 655068.471118352 459217.424446064 -2157.59861617950
 595826.979198429 533840.823418063 -2045.99892422517
 533043.789812406 596541.392285918 -1638.72877778333
 469235.511958601 647932.125070824 -1412.66349743932
 408513.713207687 687833.716307114 -1151.01364589144
 360169.060187223 714336.787247340 -1096.57147531794
 282368.824780972 -748508.433991546 -1723.66914943644
 324231.319180936 -731348.706500117 -1766.68129458756
 379088.956768143 -704476.395773115 -2137.90901621246
 440229.067499090 -667976.553462761 -2385.82331531628
 504773.880430723 -620640.545682641 -2939.84517680766
 571027.900256636 -560284.318506712 -2935.90939336215
 637119.595111817 -483808.826934577 -2764.14629574836
 700072.888461668 -387164.439214543 -1283.68556307102
 754205.896347210 -266782.185789475 855.137703874695
 790525.585767982 -122704.941988914 3577.07389996362
 799179.296554256 35957.6560786421 4415.75909371715
 776927.285084292 190720.271868785 3125.95423002771
 730487.639173490 326170.817825268 637.662870914803
 669896.030738958 437307.986053284 -1016.53047599490
 602924.241924360 525812.183733861 -1976.34434329182
 534210.514620043 595495.751165322 -1984.03967641170
 466532.727214406 649879.820780618 -1852.83027838121
 402149.116372266 691573.548224482 -1454.50926618501
 344248.147482129 722143.774978020 -1257.46396235706
 300058.050972174 741595.523883652 -1115.79680648939
 224828.356591016 -767755.967253493 -1727.66294089419
 260412.641094460 -756426.852662562 -1916.48877355852
 308635.771075728 -738064.654013153 -2127.74738497149
 364903.769746512 -711925.552215799 -2692.01170412136
 428008.515948186 -675870.469692119 -2796.15342695645
 497532.846961807 -626461.405857633 -2678.27649019730
 573026.581897438 -558247.245549516 -741.131106827403
 652129.185724784 -463374.619941683 3389.20637189726
 727741.791850427 -332069.782200984 11024.7060423664
 783936.049712792 -158332.017304275 19371.1707715612
 798368.043743330 45746.5240968130 22709.5192046904
 762767.891362123 240618.941049103 16960.8111654302
 694394.243781655 397163.328768942 8827.48458373757
 614150.595384162 512652.195585672 2602.41243254686
 534099.535095511 595598.431514125 -441.575218333840
 459183.351283815 655093.720142960 -1693.43822499436
 390984.041284156 697945.934923918 -1717.95933808576
 330237.589086449 728656.759863437 -1568.77649383990
 278357.724868054 750010.276143534 -1250.07415023509
 240194.382480742 763089.336475193 -1150.29672028591
 167411.845951807 -782285.186504516 -1777.86686867800
 195356.034659903 -775778.661531718 -1867.62791126953
 234244.865502531 -764933.950100400 -2322.70736429602
 281575.686492172 -748804.922285851 -2514.18713367008
 337614.548867809 -725265.090076785 -2639.22501844850
 404062.321409157 -690458.309048985 -981.775259217146
 483142.881616686 -637619.894164499 3718.40137406925
 576352.917914349 -554596.557980242 15491.0260500687
 679070.048304923 -421330.870037135 36662.8892601466
 768321.963271767 -213615.128108067 63639.1215966311
 794152.539833548 61686.2019537428 74273.5212875118
 733793.888258970 313996.636617596 54338.2162627768
 632911.562889943 488472.818194263 28587.7499213347
 531262.995152854 598019.359078959 11509.8283223632
 442448.614595701 666506.733509677 2828.00788622235
 367711.562223559 710484.344192818 -451.291492320850
 305122.784386601 739525.426235506 -1493.45216234319
 252801.242793520 759005.598066659 -1426.09450085966
 210169.899913408 771898.284094312 -1285.37257047789
 179782.377752538 779536.426382712 -1120.97819515782
 109516.520747486 -792466.481462759 -1734.19762379531
 128544.673471969 -789602.702620071 -1959.32056203926
 155669.960734174 -784705.188870266 -2151.71677995146
 189780.210416867 -777159.686373565 -2508.70681269010
 232282.185637336 -765533.974877199 -1649.10407754924
 286199.722734288 -747052.345291190 1584.96111943984
 356987.600238067 -715827.420298271 12286.4814080382
 452538.914543712 -658588.572863698 38335.6559479103
 579476.448889547 -543746.384145682 92449.5262878939
 718373.477868919 -306787.165181748 172688.104900887
 766682.910636055 91461.4236400126 209361.224978192
 661386.987961648 427393.627800086 141074.232483821
 520308.688790631 603751.551738319 69013.9996127318
 405602.139649321 689008.153218794 27471.2415067141
 320551.902372457 732918.727073642 8753.13601809461
 256974.201999834 757602.985593015 1405.60559845405
 207984.087395535 772490.783286979 -780.465833290809
 169378.969654449 781862.553434171 -1308.50150785178
 139169.711690195 787801.016615813 -1161.70872395490
 118202.766385733 791218.635905082 -1084.53458333435
 50849.1695221973 -798380.485815435 -1720.99622659779
 59987.6558851678 -797745.702436179 -1809.80275472791
 73233.4939292392 -796637.945395936 -2199.84596240775
 90446.0723931803 -794868.152358450 -2031.83535540323
 112734.726714431 -792016.513557945 -850.672757593482
 142830.722559112 -787130.241145333 5036.68221474835
 185949.232744996 -777764.135111179 22490.7308975874
 252892.983922469 -755736.027905554 70058.5098922800
 363194.431036487 -688932.392163167 182926.117032042
 526991.671169863 -456276.583007310 392544.848796628
 600681.658284616 146804.620558271 507572.604445105
 453322.244030777 586795.837907581 300282.513112637
 309156.763637143 726422.409315467 129354.469353477
 219433.872645580 767798.877542861 48307.9618664102
 163871.364408674 782882.504942735 15529.3071780151
 126827.032777461 789873.985691988 3740.38553071770
 100339.781283437 793682.499459480 -135.439081216761
 80478.0993892296 795941.162932342 -969.880718318544
 65468.2167746543 797315.956641227 -1085.30071053114
 55280.1165830014 798087.188109062 -974.108176691060
 -8474.62160027591 -799953.509488469 -1601.07645484257
 -9835.06600590755 -799937.491406203 -1811.44125241721
 -11598.7569867813 -799913.611889165 -1918.94522926070
 -13630.6938644955 -799881.464938564 -1961.18140658068
 -15817.6162079739 -799843.609211825 -61.8101809402933
 -18362.3381549093 -799762.257978900 6569.26555840402
 -21589.0732261498 -799217.988677616 28009.2572436716
 -26749.0486997604 -794730.656159199 87679.3735973692
 -36694.6237683983 -761472.529793872 242514.104653352
 -55366.1812718786 -556865.681262634 571695.022720393
 -64543.2812798274 189351.209782991 774583.942639757
 -45578.6893522244 680448.748092500 418224.920702106
 -30820.8149659161 781937.920526713 166202.183521149
 -23394.6613317267 797451.098642505 59366.9528865529
 -19241.5294490331 799539.838067173 19126.1833093098
 -16341.8824676975 799818.395350459 4845.34172465314
 -13966.1063117874 799877.973070165 419.608927638674
 -11861.8850438070 799911.639065159 -815.702947352174
 -10029.6302066719 799936.627819767 -893.303003740186
 -8640.19458387550 799952.868431122 -869.095146374778
 -68134.1627660866 -797091.864737602 -1514.93672996460
 -79959.6631593658 -795992.417277634 -1588.67993904151
 -96735.0125733648 -794127.593924735 -1924.03475605445
 -117742.036123679 -791286.263635441 -1691.71845029031
 -144058.499333255 -786922.465953288 -425.849560060091
 -178189.537756266 -779883.993542091 5426.34785533903
 -225603.460255348 -767204.037863055 22383.9899803071
 -296972.743877711 -739752.318073390 67629.1157622951
 -410792.243773996 -664520.323625965 172227.965043913
 -571903.485165096 -428628.852244039 359449.176769088
 -640632.060043402 136378.796049361 459337.988449328
 -499638.918974104 559198.340000746 278672.150002110
 -354363.579673671 706549.451521603 123346.365797231
 -260249.429530115 755007.349664949 47266.6518928536
 -200126.346020412 774403.426452137 15772.7209988438
 -158793.349436558 784070.823863475 4197.06335079437
 -128183.826719264 789663.741019594 287.552683350764
 -104405.811999123 793157.631755130 -630.562762351146
 -85822.5210558474 795382.836336960 -799.087098127804
 -72879.8899186002 796673.090786258 -712.785047610517
 -127794.384155786 -789725.782860803 -1335.38875803327
 -149539.369144297 -785897.998696543 -1520.76319477219
 -179967.621785205 -779492.768085329 -1636.95193854172
 -217447.667824701 -769878.647871652 -1838.28967135411
 -262814.809322947 -755597.563512247 -835.472858700988
 -318829.590950454 -733717.530065856 2505.59542336177
 -390168.245742799 -698286.016263999 12859.9962729131
 -483734.256312248 -636092.622431810 37247.0798568038
 -603953.691275425 -517484.707580151 86310.5799741531
 -730478.568760728 -286146.985686863 156591.708476537
 -772935.271440313 84929.2474638005 188037.467247150
 -678760.833414367 403086.648106097 129633.657439824
 -547691.286859370 579421.414661266 65613.0972463832
 -437141.489431362 669444.605265414 27408.7339868832
 -352562.568265394 718057.933855036 9614.52473839552
 -287428.192763429 746578.489813564 2364.85780670789
 -235786.667621190 764463.633390313 24.4085144797153
 -193956.843200889 776131.641330246 -646.762371568859
 -160457.314794282 783742.989075972 -614.168762551035
 -136781.638934986 788219.801576854 -572.409296965424
 -187411.229918243 -777737.487976016 -1196.11758964416
 -218029.148381818 -769715.347074580 -1254.96364735697
 -259998.957718854 -756569.925893605 -1577.72572226246
 -309877.286111342 -737545.572816488 -1611.07761094701
 -367461.974350037 -710612.075564140 -1474.94718496776
 -433741.850643344 -672211.179151327 370.977721501350
 -510490.767375064 -615932.605881486 5118.73391169683
 -598418.418123526 -530689.374719026 16253.7506707347
 -692723.627563712 -398583.228789379 35572.2580503892
 -772400.365338658 -199668.114697759 59416.4926409299
 -794954.291350586 57674.6435891174 68711.7904740969
 -741630.964029860 295517.222165171 51508.1022356835
 -650246.893367827 465150.237776135 28534.7851278970
 -555532.900632007 575518.378355934 12719.7676843457
 -470386.430664734 647084.061937475 4338.50584749704
 -396674.947203976 694728.849742077 900.886659947785
 -333137.230826110 727337.238093470 -357.099529616529
 -278577.809948201 749929.423542822 -513.331465954600
 -233063.626716221 765298.046781172 -495.474321523432
 -200058.374519733 774581.499373966 -384.203204247040
 -247250.038040888 -760832.724931015 -991.646522474650
 -285469.177319493 -747332.637869443 -1130.12195486976
 -336284.388672084 -725886.539245003 -1241.80447544114
 -394164.067455950 -696155.294617030 -1579.14636956622
 -457156.731660782 -656510.157047132 -1461.63989434478
 -524592.397138659 -603988.225512350 -1019.95429205856
 -595722.877594618 -533959.777371316 1099.66356780949
 -668448.085966511 -439487.771199322 5258.83389730411
 -736395.569668104 -312357.519163437 12423.5741738268
 -785961.338077468 -147861.912198599 20040.7077831594
 -798525.386978303 42731.1589479911 23048.9567250829
 -767314.574564198 225620.352859486 17994.4446128559
 -706414.860868045 375322.658929097 10533.0925739911
 -633370.959147101 488692.262709791 4593.52551593152
 -558693.051857704 572590.667548424 1414.65273987136
 -486831.932985157 634818.607591297 -66.9461042233693
 -419468.639983708 681209.152034573 -388.914587755855
 -357672.535178010 715590.780497118 -438.687655249316
 -303519.276606378 740186.445623079 -272.844671613012
 -262893.553465333 755570.603637515 -206.070888861692
 -307813.425102784 -738410.585443999 -838.230721438684
 -352093.365013331 -718351.940845685 -866.831487747104
 -408877.982131223 -687617.319931521 -1103.20374022553
 -470270.221076867 -647181.944191595 -1204.27600756190
 -533064.970027518 -596522.888452093 -1476.91649484823
 -595482.276868847 -534227.772429999 -1243.02034398451
 -656109.123934305 -457733.824661536 -750.500421126580
 -712529.725327169 -363731.526183488 876.005376536245
 -760224.565377964 -249096.226456162 3111.29574068434
 -791797.770702279 -114121.646755054 5704.38890821365
 -799276.560292974 33376.8744971212 6554.72463459067
 -780015.184387277 177617.176564120 5333.92113483483
 -739366.696579021 305496.594848421 2952.71499582748
 -685467.710172407 412471.418106745 1160.84280066672
 -624594.364736234 499881.865348225 15.3531519456507
 -560487.775632961 570835.673971531 -294.427381268875
 -495378.031161376 628172.317373423 -382.005737202822
 -431414.779997860 673707.092906595 -201.411871287985
 -372112.551927911 708189.408398482 -102.615333327746
 -325783.441285106 730660.762119116 9.16217891331663
 -369413.736440087 -709600.630342899 -660.867865242388
 -418006.900970550 -682106.801045245 -736.687735844583
 -477551.037171905 -641828.929076764 -795.422033311151
 -538307.367931300 -591797.338689823 -1042.85690267946
 -596459.432743926 -533136.885229120 -1098.49851491174
 -650414.558113344 -465788.843965289 -1286.63580852861
 -699126.513065419 -388871.504692735 -1035.16520251293
 -741250.213545391 -300911.285529262 -720.527611165324
 -774331.444199771 -201024.363039154 141.379626690265
 -794893.051815992 -90246.2400105389 807.674822003051
 -799551.892914254 26742.1857943078 1275.16123522073
 -787219.364047093 142424.951157481 897.862505879931
 -759917.865953304 250049.322442573 416.354398520556
 -721109.848056479 346410.978697157 -144.478508382875
 -673862.281509032 431172.294253075 -279.692656325965
 -620196.615559239 505327.657375045 -341.673405035054
 -561576.612582476 569764.586807746 -154.337907641820
 -499859.382620927 624612.356549459 -40.6393504990599
 -438998.450750505 668790.208208373 132.827928645238
 -389089.302500288 699006.059255386 209.294281307575
 -431526.279082386 -673635.489828143 -545.257105223685
 -482344.162562948 -638234.916202560 -548.253006040841
 -541264.225553339 -589094.718541474 -671.358835173120
 -597614.614999677 -531842.311874127 -726.112368754287
 -648195.988479239 -468872.153109471 -929.816062396776
 -692249.773804602 -400985.494482516 -940.150035315791
 -729730.501024526 -327860.146991266 -1058.24825054773
 -760320.568016389 -248820.995361135 -863.781644613249
 -783131.124225260 -163416.903337437 -746.976093887087
 -796712.660538379 -72448.4550491561 -397.364880205437
 -799705.369024462 21707.5418243055 -324.625007870991
 -791636.662344067 115374.786842596 -231.070919715721
 -773213.452775527 205282.289811998 -371.398023118237
 -745752.796656134 289573.239070216 -324.798303818933
 -710380.040725094 367913.157163854 -326.381893165659
 -667712.232489681 440636.307768167 -137.332014519953
 -618042.497098911 507960.108243132 -14.6071224401051
 -562204.827250388 569144.706106895 189.015492434394
 -503395.891237184 621765.615493080 309.961339014800
 -452305.870770643 659863.029804567 425.633115495373
 -491470.501723373 -631234.141387093 -452.419137336841
 -542197.829807318 -588235.740868852 -475.937714639853
 -597127.209735514 -532389.748647012 -500.928189579824
 -646424.545699932 -471311.918634248 -618.118063954471
 -688204.176539338 -407890.395734824 -660.652026724188
 -722795.407813808 -342879.224895516 -797.231660652020
 -750880.475151244 -276003.436091869 -784.411959868363
 -772872.286820298 -206561.655741815 -842.996063430620
 -788672.551459322 -134145.792390002 -716.211351268289
 -797822.761327808 -58977.7868473086 -679.827819822235
 -799802.098596791 17785.6671216912 -522.613819838698
 -794400.575775023 94485.3062282543 -502.110807564032
 -781825.585819619 169554.152836612 -377.642249430923
 -762457.218988044 242195.958463896 -326.981303493973
 -736495.909084816 312367.976165584 -152.864476002875
 -703723.018304264 380491.672434095 -26.7776332550703
 -663615.565679912 446782.217315765 176.855135916353
 -615929.664500756 510519.872921873 328.237448147409
 -562465.598547576 568886.805839585 502.585465308219
 -512765.738155097 614061.000667720 620.671585047205
 -541085.673103883 -589258.948190346 -431.670390989463
 -589315.746995750 -541023.814118424 -427.667620864098
 -638343.858189109 -482200.059037067 -470.931941016612
 -680407.453433373 -420767.668007937 -516.596045543738
 -714713.944461067 -359421.224761691 -600.652735996536
 -742161.723990115 -298656.258721226 -643.871619077402
 -763791.596456467 -237953.562343438 -706.647400680109
 -780275.993278827 -176547.145742414 -692.562593863619
 -791855.620953840 -113860.468615721 -685.018552759450
 -798446.186213420 -49832.9851223172 -601.094870978874
 -799857.785873577 15074.0747099660 -542.815860153678
 -795984.174788943 80056.2610065728 -434.234055858491
 -786856.854601394 144416.644060082 -351.119958217981
 -772520.224086602 207876.064375028 -212.690234828876
 -752812.546387592 270690.345821158 -81.7352538830082
 -727207.537677553 333420.437283826 95.6368742160829
 -694832.668985222 396494.000701022 263.664507084291
 -654917.801647162 459437.118608675 455.115598246844
 -608281.886157377 519608.264033421 631.601931030149
 -562385.417055479 568965.746282248 788.822426493041
# End: Data Text
# End: Segment
