# OOMMF OVF 2.0
#
# Segment count: 1
#
# Begin: Segment
# Begin: Header
#
# Title: Oxs_TimeDriver::Magnetization
# Desc: Oxs vector field output
# Desc:  MIF source file: C:/Users/Victor H. González/Documents/GitHub/Intro-to-magnetism-in-python/vortex_dynamics/drive-2/vortex_dynamics.mif
# Desc:  Iteration: 1965, State id: 12391
# Desc:  Stage: 280, Stage iteration: 6
# Desc:  Stage simulation time: 1e-11 s
# Desc:  Total simulation time: 2.81e-09 s
# meshunit: m
# meshtype: rectangular
# xbase: -4.7499999999999995e-08
# ybase: -4.7499999999999995e-08
# zbase: 2.5000000000000001e-09
# xnodes: 20
# ynodes: 20
# znodes: 1
# xstepsize: 5.0000000000000001e-09
# ystepsize: 5.0000000000000001e-09
# zstepsize: 5.0000000000000001e-09
# xmin: -4.9999999999999998e-08
# ymin: -4.9999999999999998e-08
# zmin: 0
# xmax: 4.9999999999999998e-08
# ymax: 4.9999999999999998e-08
# zmax: 5.0000000000000001e-09
# valuedim: 3
# valuelabels: Magnetization_x Magnetization_y Magnetization_z
# valueunits: A/m A/m A/m
#
# End: Header
#
# Begin: Data Text
 582857.501419592 -547975.269372607 -487.026620728564
 625630.177387129 -498584.632130777 -495.727311895156
 668801.935329578 -438980.228341478 -574.825779000215
 705434.471786998 -377308.561097991 -675.082782695610
 734828.684848038 -316269.029166833 -839.710886125990
 757813.026070097 -256356.112420461 -980.379084894760
 775304.410432642 -197235.108459753 -1176.07591747840
 787953.588397980 -138301.959625123 -1307.85878306237
 796066.433212113 -79221.4388626368 -1482.40934901957
 799750.573725465 -19914.0253092280 -1565.70168726560
 799031.862584836 39309.6717271103 -1682.93877316324
 793954.210107034 98152.0784341800 -1697.57249188276
 784559.815770936 156406.098202647 -1740.09266925295
 770759.601769174 214305.327171730 -1692.04800253138
 752213.262779101 272346.049690856 -1684.19624881989
 728199.060991809 331245.333140955 -1629.98251088432
 697709.041917520 391406.946674873 -1641.62151210263
 659834.016205392 452345.320999837 -1667.82127882182
 615238.216564558 511349.921810922 -1787.27234240261
 571023.704928559 560292.861632535 -1958.98271759421
 534451.863419723 -595282.271466856 -472.191111009456
 582092.549101518 -548787.757422325 -511.452709236836
 632633.894681594 -489667.266254557 -568.910174441443
 677044.770484206 -426157.039565639 -745.914632770692
 713843.201601899 -361146.983629900 -860.082423607993
 743402.428189114 -295553.017743326 -1115.10777141863
 766473.369593874 -229166.013513127 -1229.61535209212
 783480.894499651 -161726.508382655 -1491.45579272926
 794577.748416112 -92971.9490769341 -1555.12276610051
 799656.260047210 -23382.1074527818 -1772.79958703415
 798652.739961012 46375.2386683110 -1771.49406607349
 791654.787994924 115234.631799611 -1917.36243829913
 778857.644314243 182694.845466069 -1833.93931082185
 760412.633531879 248533.888583677 -1879.62511916191
 736129.249300395 313226.293876360 -1736.99421887994
 705494.929696013 377192.142482563 -1729.68859398049
 667677.468945864 440686.028951501 -1619.05805967409
 622247.874871660 502797.048983661 -1646.13214061106
 570725.276569625 560597.785518789 -1667.79973437771
 522322.399100581 605950.552090245 -1799.94981596117
 475626.648423076 -643256.587337236 -504.139945478645
 525848.684583554 -602895.419397072 -523.633243917807
 582688.530116930 -548154.729746954 -684.927891308411
 635687.312883680 -485696.421787402 -791.265847607165
 681826.713604079 -418462.829869874 -1092.07745047547
 720623.638833475 -347419.180961013 -1218.13578080650
 752036.018986576 -272835.858716823 -1555.74582644891
 776016.788658753 -194410.242904633 -1612.81540089297
 792038.211451663 -112569.397114018 -1898.00786036518
 799500.522584256 -28202.1431381849 -1885.07557287225
 797996.964050977 56535.1187960642 -2150.74594934061
 787715.295469761 139643.031540478 -2106.42473699414
 769346.723298513 219318.129970895 -2275.34962385624
 743574.751579526 295113.846058933 -2099.20883909991
 710854.648775633 366989.419923594 -2105.70135960111
 671113.733031443 435434.144619492 -1860.92345132854
 624278.149876184 500273.433413493 -1812.01761715756
 570795.580368597 560526.262568512 -1647.54443094902
 513688.444327237 613287.381017479 -1664.46669664053
 463437.556659623 652091.055914771 -1698.78583642161
 414426.130241761 -684288.458422781 -536.881935979310
 464632.075032772 -651242.377865509 -632.552622297006
 524863.417522259 -603753.152302259 -723.900505063520
 584609.620702772 -546104.861010740 -1035.45265556175
 639999.909716893 -479998.661015968 -1183.63222641744
 689205.915035901 -406192.981932367 -1571.02145735367
 731270.947245955 -324407.450207044 -1614.91924470160
 764823.298486933 -234609.960505143 -1867.75890891161
 788162.079859199 -137104.242441290 -1721.21370642639
 799259.764302622 -34351.2937092836 -1953.91591845956
 796948.395156114 69780.6418564011 -1979.26254033010
 781657.415578339 170310.896078682 -2425.56143366390
 755134.931349590 264131.069357910 -2452.27557516825
 719514.969130338 349701.636960060 -2640.89091458049
 676308.367051949 427318.834128072 -2367.83761111805
 626615.080399187 497341.237555086 -2287.89062155262
 571203.260856042 560109.864167280 -1942.89730435958
 511761.683589425 614895.605856131 -1836.60244471526
 452087.987135483 660010.370561646 -1662.11878840932
 402494.505087837 691372.041895623 -1695.01008107557
 353543.438253873 -717639.647048270 -611.761443263220
 401414.055752693 -692001.676298767 -660.184725856536
 461635.992495434 -653369.232095088 -925.734428039604
 525201.008514071 -603458.972093105 -1081.50642019830
 587974.888721735 -542478.873583441 -1483.89632564939
 647700.329184456 -469555.125441417 -1505.90372924481
 702063.214095476 -383542.229862006 -1612.86279981638
 748309.233761049 -282899.571381915 -1059.80181143717
 782174.047330754 -167938.399512149 -673.536579635954
 798900.640283965 -41925.3311908474 -183.189544681708
 795276.421833416 86803.3518102204 -768.758967422794
 772280.482501341 208759.818838893 -1481.34595795071
 734305.266052360 317473.835950306 -2477.84881927737
 686059.714603327 411478.691227651 -2711.94837363213
 631212.925343835 491489.445303260 -2892.75549822035
 571946.331672136 559348.815947232 -2509.14033403745
 510147.521977635 616233.810951335 -2322.94220200902
 447843.776298201 662896.869468106 -1921.58277281581
 388951.408791650 699080.510407978 -1800.43514507868
 342204.455579578 723113.531186151 -1712.19069621004
 293505.120694595 -744213.899810321 -644.558115655728
 336939.885954964 -725583.131298811 -795.504411696865
 393991.407822080 -696254.200734707 -926.564433149741
 457527.225078588 -656252.348167357 -1301.47482363297
 524700.997644968 -603893.314680130 -1314.36487353756
 593282.470677178 -536669.640494657 -1267.65867602426
 660963.182335897 -450696.849188992 -147.402581625412
 723230.981557778 -341956.467360070 1649.77137621045
 772562.664923742 -207670.435424957 4463.07252186207
 798281.363211619 -52062.2588995691 6032.10968672250
 792392.256282676 109942.453525184 5212.39830719138
 757299.967302005 257861.242141118 2083.10485136082
 703166.075490421 381519.533061096 -562.291954603155
 639788.878963759 480275.257576982 -2422.25383875359
 573106.086673002 558158.869991762 -2844.16382720428
 506453.758083354 619270.479955684 -2943.39577769788
 441518.209421790 667124.900040220 -2457.33500003238
 380173.630456499 703891.436762563 -2203.62380180282
 325092.354688608 730966.171315353 -1848.59827677971
 283113.457287972 748226.928323990 -1798.34181962401
 233794.135758310 -765075.031921948 -705.418071424060
 271040.748894072 -752686.064893763 -774.695864966126
 321636.309974860 -732495.007820836 -1071.27181789223
 381063.193598348 -703412.845005718 -1100.89308799494
 447897.953063673 -662862.253128396 -1028.11425363535
 521894.117587066 -606322.008369605 390.121347485994
 601743.271733852 -527154.832577468 3580.14151405623
 683455.963400422 -415671.297129228 10262.4965435982
 755566.129967231 -262202.419381355 19227.9618500290
 796796.706679424 -66550.1557837897 26193.2241233600
 786719.077709781 143303.109134561 23179.9844658850
 731545.826100992 323496.124265188 13818.8964689485
 655178.902634181 459038.316401200 4942.63276235184
 574912.301383242 556305.526526288 -82.9128048497332
 498611.512148841 625604.054094924 -2475.36919301728
 428484.061201745 675568.929877862 -2833.77482170109
 365137.397363594 711805.416684106 -2780.25641030799
 308661.790920707 738053.385022698 -2258.24758580479
 260399.344374646 756431.141122293 -2027.36027370665
 224755.327628887 767777.070146588 -1847.50089429483
 173686.941907961 -780917.647347203 -688.674356524275
 202985.187719324 -773819.288175823 -850.184458231352
 244116.243341093 -761844.109791530 -901.173115434129
 294490.394732466 -743824.267726496 -930.672584286785
 354957.352697824 -716941.572677585 243.171427335227
 427363.570856640 -676274.871286665 3560.44531864357
 514409.700859348 -612557.770511866 12475.4738318442
 615961.230677429 -509587.186019866 30210.2986860784
 720943.431802982 -341851.225347555 58123.2128199745
 790614.621992720 -90496.9121598148 82090.3671623393
 772049.980452706 196461.076172436 73088.1196374899
 682794.444057511 414646.867148293 43124.5026441114
 577784.806996397 553003.939895454 18744.5795963195
 482913.129914029 637784.822871483 5042.68494236827
 402917.338395949 691127.503781190 -626.048803212281
 336250.860366402 725898.349012747 -2635.48921884042
 280155.066442406 749337.044987224 -2670.53486539388
 233011.084877556 765310.200895291 -2476.03105683092
 194237.506605508 776059.039021384 -2039.35795802518
 166442.080154044 782491.719941548 -1934.47070623079
 112565.686342952 -792040.712890866 -689.479128041846
 132440.399200016 -788960.714800512 -728.808071640078
 160915.036371046 -783648.912575168 -856.089634660966
 197299.390190907 -775288.911248619 -233.934238479891
 243257.718743910 -762116.831864023 1901.80468325270
 303092.132694933 -740304.728707358 9168.84681748037
 383547.838332010 -701518.217491879 27626.9114788520
 494176.403000519 -625257.916258512 69586.0680993865
 636082.924951257 -462843.410267987 145514.570256563
 755384.931618809 -135015.520795287 226195.522121073
 720083.851667582 288318.014950846 195836.587037212
 578954.169969161 541772.504031876 106276.163603839
 448849.597816244 660724.737706099 44461.8884372090
 352155.042977331 718175.755548669 14505.5109435270
 281570.746479006 748807.749389605 2206.62215379905
 228173.555230075 766768.578967852 -1665.83351164249
 186411.794735303 777973.973568595 -2671.93440313800
 152855.456013498 785257.621145155 -2382.85550531988
 126275.016493055 789968.331729930 -2157.56193642849
 107567.309497787 792732.935793648 -1940.73063366430
 50330.1641896124 -798414.995516661 -607.870689941735
 59448.5705015945 -797787.784831920 -719.609821629456
 72848.8576177889 -796676.063556336 -541.941107852193
 90323.6515944379 -794884.633522851 239.482546963019
 113556.913927758 -791889.555824980 3969.71970295590
 145690.815537891 -786477.966921636 15053.0334057540
 193952.271493023 -774753.824016830 46249.6330147226
 272597.053081376 -741736.016050226 124573.388591983
 404057.641950513 -623610.334212198 296390.912554929
 557674.625029982 -215179.775670165 531692.276359367
 506113.421458407 436995.852893698 439185.415483455
 345279.706724800 691611.590219834 206046.917952267
 237625.820477453 759821.256911307 78775.8020469423
 173906.714932732 780457.024489579 25363.1115239916
 133460.067495514 788768.532798197 5710.69623374828
 105560.621441206 793004.546102205 -863.169845071885
 84815.9353203099 795487.906365989 -2290.83853599089
 68876.1392417093 797025.765969946 -2450.67810538981
 56478.6656671080 798001.162619153 -2074.79708523457
 47945.8636425031 798559.543803064 -1961.92778061488
 -12720.6433597525 -799898.664772632 -557.967269915944
 -14956.6468137237 -799859.980414803 -557.177638784365
 -18200.4757352660 -799792.778958480 -503.397339473944
 -22208.8270728309 -799691.377633968 684.498309685189
 -27449.8260705091 -799515.355117789 4658.75300636504
 -34508.3381905722 -799060.743664466 17638.0988124134
 -45517.7759868489 -796876.187146203 54004.3926781939
 -65015.5970570124 -782957.005680471 150835.338681597
 -102744.547463177 -695391.986106609 381933.951914850
 -155021.278055270 -261395.853870242 740027.439308541
 -136507.847553323 516803.096951054 595214.387038954
 -85047.3378426150 752293.927814062 258497.188572672
 -56059.7716456806 792466.509354951 94096.4056370588
 -40979.6741806557 798384.979374886 30034.8299913564
 -31972.3340333228 799330.475844780 6968.51793569361
 -25876.3411796140 799581.356189223 -264.200226666650
 -21168.0148752638 799716.707536416 -2258.94518637429
 -17457.6921526442 799806.303602863 -2259.58001149139
 -14413.4528061543 799867.401375119 -2095.85200326658
 -12284.9193718095 799903.438353624 -1889.46184903296
 -75913.9302765432 -796389.902274315 -445.808785579000
 -89481.4303967480 -794979.734509025 -543.446511316751
 -108955.805603440 -792545.584041530 -360.057739010233
 -134027.588394578 -788692.869157920 404.584456276671
 -166187.297922626 -782538.629305386 3882.73795464222
 -209541.031089653 -771943.800515427 13975.8769199578
 -271730.750634801 -751289.857775069 41544.5395180386
 -367272.259226275 -702490.820477023 107785.596200734
 -512197.809361238 -564274.700037366 243408.025716674
 -661200.131646284 -182009.157686022 411930.883073073
 -613508.467988145 378618.263293302 346778.849423670
 -449613.459503556 638803.696229342 172561.799703681
 -325976.598495458 727323.536851728 68845.6968504522
 -246587.076238821 760707.198574312 22789.7316616922
 -193689.150479349 776181.118069203 5233.06214652543
 -155659.970215025 784709.732696029 -780.438840964064
 -126682.410223865 789903.201748881 -2121.03907070106
 -103640.111872644 793255.028010363 -2277.66268440449
 -85472.0823790706 795418.619195620 -1934.77924255924
 -72694.6929715755 796688.230010575 -1829.14635420293
 -138720.591118457 -787880.995528276 -366.722126846625
 -162702.001544766 -783280.219245267 -396.020722877003
 -196693.659578082 -775442.703084557 -467.455557630547
 -239000.131142790 -763465.074803030 129.883536303993
 -291162.779650102 -745130.840506212 2065.49580765299
 -356413.412539205 -716170.772350154 8300.85498858466
 -440355.974598307 -667483.192889470 23511.7597311065
 -548573.729072432 -579559.111583705 56374.6392615703
 -676355.820072630 -412318.056845876 111967.069501355
 -774029.528520253 -114981.798246161 166305.366873095
 -746137.069802771 249011.935882536 145851.050233340
 -626620.567517766 490368.677765752 82977.2512799823
 -505484.672189626 619008.641343944 36242.9044486043
 -408570.480878925 687691.672236175 12260.7541112380
 -333672.560944640 727089.176202412 1987.94414968357
 -274730.184385477 751346.408491912 -1378.48969018069
 -226902.347576945 767144.124396083 -2284.09033067594
 -187579.695357866 777695.055282578 -2063.70503700167
 -155663.383921367 784707.211018541 -1871.86582121810
 -132964.912767855 788871.019241923 -1687.29749766174
 -200905.614793974 -774362.242624162 -226.146710802353
 -234012.179155862 -765008.612938279 -349.481005692392
 -279582.874777898 -749555.392345777 -360.466772951431
 -334194.512088985 -726852.073674532 -301.802316513310
 -397500.758756548 -694256.858408207 749.227026048118
 -470669.266566234 -646883.157945001 3552.67182621236
 -554547.948288132 -576509.690249227 10637.2034935154
 -647424.531102329 -469321.258605850 24063.0992922836
 -737525.311431498 -306788.920099131 44011.0611355772
 -793786.175440149 -79363.1853513244 60041.5896774224
 -779172.169759922 173184.939890466 53830.3489376696
 -705628.056261241 375509.274987136 32891.1935876213
 -613431.734007632 513302.322108520 14907.5091947330
 -524992.587489293 603625.975323316 4297.09160624616
 -446749.160381411 663637.767638977 -317.901965529473
 -378597.238670246 704741.113035130 -2023.47949604828
 -319304.270920172 733512.277126346 -2126.47056406619
 -267814.923657955 753837.654665488 -1989.23968392862
 -224575.047596195 767830.268685417 -1651.20793524514
 -193010.706165094 776366.163460536 -1564.46131963128
 -262760.364578790 -755616.953135166 -104.599954646277
 -303296.188196392 -740277.917527186 -164.460185340312
 -357344.069178243 -715754.909012637 -355.594496982998
 -418878.086146788 -681572.476658763 -328.644554692778
 -485883.640687430 -635544.696611440 -162.238710916424
 -557067.770444653 -574172.830542016 1029.46548858381
 -630895.730837231 -491892.052902475 3575.62620331033
 -703060.034971717 -381619.458758926 8554.29261312615
 -764030.906867469 -236715.048474167 14925.1189993847
 -797546.478717445 -59467.9087535394 19575.0380302331
 -789468.270176535 128207.247868031 17399.7694977944
 -744113.775785964 293563.136414507 10741.2114788433
 -678577.515881671 423691.978834932 4202.61951645931
 -606686.343707056 521470.608171667 291.843170213593
 -535272.890191209 594542.021614114 -1648.50276082724
 -467084.639857715 649482.681542844 -2045.87020709285
 -403005.108659078 691073.560959566 -2053.22608344405
 -344057.060678230 722233.941278041 -1695.01133986727
 -292171.936949100 744737.029251243 -1522.01230103253
 -253164.290421416 758884.647275708 -1390.74967010799
 -324794.883636897 -731100.731156400 66.8271684521112
 -370990.378276314 -708777.917523294 -53.4578470411895
 -430076.568452464 -674562.171889811 -146.708740235711
 -493818.016299662 -629399.419623961 -370.614204518691
 -558568.357510339 -572713.957215818 -336.449698022039
 -622295.643551423 -502740.581614010 -199.035997407343
 -682727.533314135 -416992.382463066 684.267910216702
 -736477.004333639 -312405.752259773 2065.92418903925
 -777644.084983212 -187758.830036325 4037.18144403994
 -798620.055694952 -46692.5017344191 5081.03567915097
 -793855.437241053 98864.4266032423 4401.12658630757
 -765032.097103894 233926.032268034 2121.75119966364
 -719408.634953939 349930.293493569 75.1612632947556
 -664135.265262248 446007.192744664 -1390.48734948700
 -603990.762525490 524587.223650181 -1844.87584206866
 -541476.598331687 588896.555646638 -1984.99538301574
 -478319.017273880 641255.039141068 -1700.73229461837
 -416289.847524971 683154.754964275 -1530.88776144283
 -358832.165371986 715008.952031559 -1294.45323800922
 -313925.620131217 735832.267713085 -1256.51002763434
 -387423.009114696 -699930.970326445 220.876426207190
 -437199.128912296 -669967.834788470 148.415563924012
 -497942.968211584 -626141.197188564 -39.8987423840557
 -559503.041883187 -571800.945221873 -158.640578283416
 -617997.304609356 -508014.931923538 -400.547493883507
 -671493.049500147 -434852.757649098 -404.521902230908
 -718690.543573864 -351402.524648478 -410.180666846714
 -757641.985272211 -256863.040966184 -18.3952770011183
 -785566.748185746 -151277.239077026 284.749195608795
 -799115.260280479 -37609.7666960638 553.385878092529
 -796172.218868752 78165.1189843672 109.889798573926
 -777440.149108984 188643.982550104 -512.250951567587
 -745904.646745676 289179.179935813 -1288.35354554707
 -704944.719070353 378220.055320577 -1591.47985229425
 -656939.946709257 456537.767992126 -1781.23957043032
 -603397.392834054 525270.431875354 -1599.91204332730
 -545325.169671749 585336.000459231 -1491.94130922872
 -484468.584855845 636622.827003191 -1251.56951037524
 -424605.786782009 678018.109327099 -1170.15201453496
 -375661.599970820 706312.333812701 -1117.77073655824
 -450135.851693444 -661345.260338473 402.054792120479
 -501206.994066347 -623531.449568080 283.722586103687
 -560014.707087144 -571299.834155618 165.347704920851
 -615893.518289544 -510563.581398136 -58.9816596444980
 -665577.546310928 -443854.132203410 -197.920896619603
 -708307.356894962 -371887.743211356 -441.154889622573
 -743781.474372970 -294599.504046129 -500.594992649364
 -771528.740209093 -211525.400080096 -638.868003788679
 -790483.197225596 -123028.320642526 -589.257058191237
 -799414.722708775 -30586.7162260013 -744.249261099624
 -797542.276883619 62654.4499543647 -858.186581897662
 -785167.507981907 153331.506051835 -1197.35598638713
 -763502.610474675 238876.509517776 -1333.04124505922
 -733863.628206066 318499.481310159 -1501.86596910400
 -697172.242450678 392363.206531694 -1406.59747647631
 -653698.889781422 461167.956906634 -1370.04419465613
 -603576.681663620 525065.499483603 -1187.68849783510
 -547496.274021880 583306.589212416 -1119.33620324514
 -488703.088184371 633378.435294818 -1024.35469762182
 -437834.239572723 669552.154910129 -1044.27629454996
 -510294.295442810 -616116.395400487 565.117011422379
 -560122.195353667 -571194.294185798 452.285062142975
 -613766.500091371 -513118.513600859 272.700630502613
 -661613.259486034 -449742.016173568 117.304733697980
 -701879.177976487 -383882.283152213 -110.475764241774
 -734791.368675161 -316356.722820618 -261.623168918625
 -760946.788821820 -246900.286243434 -482.943754669468
 -780590.250553485 -175152.843810964 -584.846799447645
 -793599.885008264 -100988.302857153 -764.984249183372
 -799603.544387299 -25168.7868089224 -839.031486416223
 -798373.071241380 50984.1967990975 -1025.08212214785
 -790047.446245144 125792.802004612 -1097.10772154146
 -775058.034210063 198200.741526439 -1228.68417485759
 -753836.595967625 267822.603335870 -1199.88430276490
 -726441.494244565 335084.004916253 -1210.40861225598
 -692506.698201491 400541.204041055 -1103.09175051483
 -651327.811032684 464511.516598249 -1064.67035603937
 -602612.059225114 526172.726538587 -983.830990694930
 -548174.222543288 582669.755681331 -988.712961358584
 -497779.296740599 626270.497211768 -1017.86961862335
 -559800.472795176 -571509.337605021 712.522679955874
 -605993.818855171 -522275.001455231 560.681964131165
 -652919.621981358 -462272.450474999 385.698796924848
 -693080.435766431 -399549.089913044 185.222760461532
 -725651.884749688 -336792.728767826 2.88934422316510
 -751438.258832889 -274482.244285096 -201.827683826565
 -771338.062236432 -212220.308994195 -366.327385895780
 -785926.989676046 -149393.664567021 -547.618466489813
 -795393.889173895 -85721.0806227241 -676.314792906008
 -799714.286703374 -21362.9820451838 -826.220702986937
 -798841.210799893 43033.3209224871 -923.698079890918
 -792844.755907630 106752.633917414 -1033.52864809013
 -781879.846324395 169300.798195926 -1070.34665545204
 -766001.422532418 230739.265605042 -1100.90251981693
 -744976.529284297 291562.749495596 -1064.85778011949
 -718139.902947474 352525.172946122 -1040.30471453592
 -684487.933402109 414095.745856817 -991.105543525156
 -643131.024802433 475795.668481623 -983.255154658370
 -594863.267549748 534917.463928654 -999.852076457504
 -547338.896991165 583454.354369799 -1071.54440778682
# End: Data Text
# End: Segment
