# OOMMF OVF 2.0
#
# Segment count: 1
#
# Begin: Segment
# Begin: Header
#
# Title: Oxs_TimeDriver::Magnetization
# Desc: Oxs vector field output
# Desc:  MIF source file: C:/Users/Victor H. González/Documents/GitHub/Intro-to-magnetism-in-python/vortex_dynamics/drive-2/vortex_dynamics.mif
# Desc:  Iteration: 1195, State id: 7551
# Desc:  Stage: 170, Stage iteration: 6
# Desc:  Stage simulation time: 1e-11 s
# Desc:  Total simulation time: 1.71e-09 s
# meshunit: m
# meshtype: rectangular
# xbase: -4.7499999999999995e-08
# ybase: -4.7499999999999995e-08
# zbase: 2.5000000000000001e-09
# xnodes: 20
# ynodes: 20
# znodes: 1
# xstepsize: 5.0000000000000001e-09
# ystepsize: 5.0000000000000001e-09
# zstepsize: 5.0000000000000001e-09
# xmin: -4.9999999999999998e-08
# ymin: -4.9999999999999998e-08
# zmin: 0
# xmax: 4.9999999999999998e-08
# ymax: 4.9999999999999998e-08
# zmax: 5.0000000000000001e-09
# valuedim: 3
# valuelabels: Magnetization_x Magnetization_y Magnetization_z
# valueunits: A/m A/m A/m
#
# End: Header
#
# Begin: Data Text
 505656.807813390 -619926.110914941 -1676.22130054014
 557527.811205749 -573724.935184148 -1561.56334243579
 610590.344536261 -516891.821186650 -1508.75758124517
 656483.696400178 -457194.577636825 -1508.15789774901
 694319.398584222 -397389.183858706 -1552.19256426685
 725064.842408854 -338050.884408996 -1604.32319651059
 749928.822405948 -278574.964394780 -1658.47438199156
 769719.856018348 -218010.437329825 -1671.06742880788
 784756.184424818 -155418.899272038 -1642.18027887121
 794874.319070901 -90401.4831873236 -1545.54815616252
 799663.583299530 -23155.1078684041 -1412.27623312164
 798708.426958485 45423.5878352631 -1243.53273958015
 791798.394736791 114254.815029804 -1067.39624613334
 778913.487329620 182463.782669045 -864.447866417901
 759996.808227339 249808.792908213 -646.892570714417
 734734.321244430 316489.040471586 -405.520483892694
 702479.285601621 382783.001457817 -164.607350230765
 662679.613845873 448169.303136049 71.5516181634793
 616323.410136136 510044.485553919 277.261974089701
 570944.379243340 560376.955621753 428.273900884263
 456334.689601259 -657081.681280371 -1521.57559210029
 508523.028759757 -617577.687573318 -1459.12048766047
 565878.529466701 -565490.388620717 -1452.67552973484
 618088.290012584 -507902.116947610 -1518.33772823723
 662974.274006405 -447730.449481260 -1598.94120851820
 700869.473060935 -385718.864546977 -1714.42814905533
 732514.770712058 -321588.142727915 -1782.45490033072
 758506.970313593 -254290.880521865 -1823.20298086361
 778783.958662157 -183009.507227176 -1750.99827700311
 792772.514055157 -107280.512895996 -1622.50159899315
 799512.519879003 -27887.4782373870 -1420.95541328780
 798207.039878173 53515.9116988402 -1252.47114428658
 788597.475923126 134583.991380774 -1081.77247732043
 770952.453656119 213615.199536074 -927.754693961075
 745696.796303766 289716.704280273 -720.585370767146
 712948.069161892 362911.560161333 -500.179564289438
 672544.571920092 433224.810434913 -249.808833206566
 624489.851493758 500012.424620271 -24.6305076528178
 570772.658062622 560551.997605701 175.466199063884
 520985.701987813 607102.796111220 305.414805942753
 397008.371053645 -694537.450278792 -1443.42424996916
 447243.261963245 -663303.434169200 -1420.86164758083
 506424.553929092 -619299.539276640 -1500.60969684141
 563910.120955195 -567452.860463582 -1620.68997573574
 616454.404887415 -509883.013092806 -1810.98158551409
 663192.916042536 -447405.099749763 -1957.76119647990
 704283.707176329 -379447.099193870 -2087.75461303341
 739560.482483263 -305034.636205591 -2040.45682277258
 768351.718808900 -222782.862854273 -1852.62566749046
 788957.520987164 -132453.397786795 -1458.59265128450
 799221.691681449 -35263.3278835617 -1088.69298662620
 797352.817305063 65021.2828505950 -847.060884286623
 783053.245770495 163789.262410006 -831.749649174395
 757520.780112204 257218.935671804 -828.752111864599
 722382.295826975 343748.753715351 -782.939903323932
 678977.418557380 423071.265925060 -607.484751304766
 628137.894641521 495421.665706822 -398.074862518326
 571108.426794476 560209.906536597 -159.570031091006
 511268.070915582 615308.832225458 25.4480512117747
 459486.782957988 654883.099229153 150.435828458604
 335836.750768639 -726093.397942550 -1433.28203995202
 382249.088318431 -702768.438289817 -1468.54466123141
 439806.618105010 -668257.135517089 -1593.58135310561
 499452.359826614 -624935.164445787 -1838.61435420432
 557476.266954498 -573773.406548210 -2071.16405441677
 612607.547106438 -514496.478103943 -2316.73193821103
 664035.038264912 -446152.461964849 -2334.23204098241
 711079.827256919 -366553.118125659 -2071.43926427373
 751744.712899490 -273638.931601100 -1273.47550929113
 782587.676622091 -166001.530391126 -142.502778994699
 798681.430142182 -45903.1663657455 934.057620758522
 796007.800132089 79813.2849323002 1192.34105394525
 774331.148945981 201024.324816808 701.857494247199
 737149.024403317 310823.607364209 -30.4357902673354
 688931.488412592 406661.012126581 -474.857658039247
 633059.212958770 489117.212457187 -620.778652193174
 571991.995416822 559307.522445627 -502.508523271226
 508038.273693484 617978.161872238 -322.353153010289
 445433.497413801 664521.619843587 -127.051824312424
 394398.256275269 696024.435806696 -14.3874438271483
 275522.298470601 -751056.101572711 -1481.66658841448
 316399.795501334 -734771.260666389 -1537.49973729084
 369306.070013791 -709654.781147853 -1765.85530640558
 427050.219037145 -676479.069061952 -2044.39267310678
 487033.250458473 -634659.635516452 -2399.99874558254
 547794.364890079 -583022.193817146 -2540.73046911743
 608869.600937182 -518914.705906310 -2310.20535124700
 668955.072061492 -438745.789585104 -1115.20605611195
 725346.440934035 -337447.470735738 1321.02928850107
 771597.491032241 -211217.471572424 4948.89233085344
 797605.950384922 -61313.1175604619 8090.08810722881
 793798.642091787 99059.0924992730 8426.86219505685
 760289.661629355 248846.851235476 5905.51011421749
 706457.544799436 375378.794626911 2915.12270773783
 642067.986075707 477229.574119730 796.769846379783
 573566.823779999 557692.623297554 -191.254844115529
 504434.894943447 620922.854898928 -495.002585068138
 437364.713693117 669859.635278148 -419.810868105516
 375874.999848614 706199.621712948 -280.680055773468
 328316.792728429 729525.912684637 -162.278048869351
 216620.310812208 -770112.492209974 -1546.05490372735
 250683.635891403 -759707.154510313 -1659.54274127154
 296055.007396123 -743201.063705741 -1900.39531043465
 348087.409817888 -720298.452110577 -2301.08960715123
 405049.749715332 -689875.388562729 -2578.47066491099
 467028.134881303 -649521.516435512 -2553.60854549837
 534109.114820750 -595588.445567564 -1362.70752878285
 606591.075925965 -521577.643908885 2006.98316784616
 681881.811052764 -418275.662129582 9092.09686828982
 751277.151903683 -274209.434741325 19794.6186205605
 794890.182668157 -85235.0509750919 29741.9498866097
 789379.749193353 126448.343310780 29840.0408411074
 736055.398564193 312722.734685452 20662.5616843218
 658664.179249584 453922.143290514 10778.9982845157
 576220.798784369 554933.307215397 4314.57892324807
 497237.712430079 626700.500861172 1067.50065984562
 424652.140548337 677990.074609188 -135.126394365427
 359393.181757947 714728.164522985 -437.885263756421
 303247.345825216 740297.851190591 -372.521884904267
 261676.491637371 755992.943049839 -289.453280155264
 158964.353485042 -784045.708382372 -1631.40683676543
 185000.591672297 -778313.398537769 -1742.04979514790
 220695.310483627 -768953.349827628 -2079.83638875882
 262891.014390518 -755567.621089481 -2425.80170401681
 311689.207334055 -736778.581084254 -2675.90861984967
 367885.250607425 -710391.801016553 -1982.78439834430
 434135.579629838 -671956.373377688 964.767624630956
 513214.482501132 -613615.878316186 9297.78626076595
 607230.257661794 -520124.313464855 27241.7459555059
 708931.513213620 -366209.384325453 57504.7511482211
 785090.298052071 -125390.184568180 88941.1351314373
 776719.362499687 170256.631890216 87861.8871609314
 688827.282655803 402831.637567194 56953.0196210431
 580641.934563357 549585.834883678 28466.7160335092
 482244.465552638 638204.704776814 11620.2514856891
 399626.831564659 693025.474442872 3753.30079050151
 330914.733436875 728350.884760912 654.111916832706
 273811.306544023 751682.979779606 -257.523413052729
 227276.309761366 767036.700211536 -423.733234983384
 194145.451787361 776084.664491366 -370.258836004012
 102109.349465751 -793454.990420078 -1690.83682068918
 119376.268385595 -791041.002567056 -1854.40126131394
 143234.954601858 -787069.961570250 -2150.20324838363
 172427.475541861 -781192.798184071 -2564.71121244516
 207076.576077011 -772730.923399109 -2492.32080250185
 249468.697867666 -760108.124161981 -1004.17486860897
 302926.996042591 -740412.333857968 4981.05808125693
 374476.972856172 -706609.184759767 21690.0164503287
 473847.855456213 -641622.088007861 61557.3396109839
 607773.636366866 -501216.706338065 139258.824585797
 737648.086409005 -198999.474294770 237222.490180712
 724353.357176408 248983.176019140 230910.354914392
 582965.043184675 531297.201788001 133697.575882774
 447530.385059919 660334.280288173 60623.3678083113
 347910.848881038 720000.994148008 23592.5763060141
 275985.007874884 750847.333419239 7781.85874441195
 222192.636978279 768522.450958947 1916.88411046432
 180370.459262328 779401.370909191 21.2219204381039
 147899.140374178 786209.700549794 -388.636053660373
 125366.058044334 790115.922759452 -424.372953724352
 45879.3677290598 -798681.430005912 -1748.42228653677
 53645.1406490405 -798197.128614411 -1882.22114915973
 64583.8872002857 -797385.606094081 -2262.01416378398
 77736.6192348196 -796210.116779639 -2543.21994619160
 93836.8095499923 -794474.065291875 -2369.12474972421
 113573.725327607 -791897.086162756 117.652651296589
 140015.312569740 -787600.206257116 9034.78553964515
 178357.263008434 -779046.940182916 35700.8644681887
 241255.088210558 -755369.656249652 105889.871233264
 350808.172219284 -666743.199005118 269048.569750121
 501280.506519117 -323188.363810382 533167.080080443
 485040.622140121 379630.539507175 510505.874939177
 330098.388233222 683823.310594051 251834.735439774
 224519.017218621 761169.950269777 101052.054474367
 163711.564482147 782216.758600934 36544.0312316045
 126002.203026965 789926.510035426 11813.2796294538
 99895.3579687454 793732.744740223 3040.95107644501
 80533.6215070018 795936.069771826 329.610599912818
 65703.3097580000 797297.268860533 -374.371979876548
 55561.8796511619 798068.090561359 -447.612976573949
 -9841.76674081733 -799937.533898060 -1755.41690462534
 -11623.8755403869 -799913.204325924 -1936.76597830639
 -14486.5678011127 -799865.694205768 -2238.43384288082
 -18199.8024167057 -799788.628135520 -2630.11351390971
 -23612.3728636165 -799648.196230342 -2284.31900329532
 -30950.5526286805 -799401.020848126 266.756357334432
 -42123.9227830007 -798826.580686572 10083.1105306009
 -59525.0347358616 -796805.576356960 39466.9954030899
 -90160.9139952001 -785809.843923996 119891.195588739
 -147623.146912844 -719177.187942719 317791.722419497
 -235544.308128953 -373349.751000921 667179.767630587
 -226760.561646965 430211.401303597 635214.765154234
 -138655.078246094 730457.417406141 295307.857384324
 -84597.4932332145 787375.072719043 113506.647379516
 -55906.3422778634 797038.460574209 40052.1317610833
 -39514.8516484699 798922.240255177 12721.2627065159
 -29104.0481928027 799463.595382055 3303.64005153853
 -22211.7341957707 799691.521643216 330.266517936641
 -17410.1031287401 799810.444606668 -375.509163653389
 -14440.4789993173 799869.511365132 -487.190696257408
 -64877.0925611813 -797363.080713851 -1755.09980459699
 -76180.2978776530 -796362.360062546 -1885.12357270517
 -92159.2801454402 -794670.669291624 -2279.13375578752
 -112627.898483213 -792027.941296245 -2587.79622223764
 -138048.690859944 -787994.895460785 -2569.76255754733
 -171088.967158209 -781491.039861222 -565.626523514431
 -215181.791283374 -770488.126576981 6696.52924828308
 -278258.279772056 -749522.428525044 28079.5098998793
 -372932.597034731 -703061.405488267 81399.8659814307
 -514937.936476932 -580598.925666802 194277.659784737
 -672848.884079267 -250935.740512816 352570.040313366
 -657001.158703204 303792.659011275 340675.061889633
 -490151.690204847 604859.026279773 184111.050502724
 -350638.484161695 714727.601423520 78848.6473452121
 -258491.652268635 756513.654873163 29481.4466721050
 -197078.061550123 775286.186975576 9569.00938023867
 -154111.422889501 785012.334981474 2302.88121893993
 -122474.464517743 790569.414761674 77.3593999028430
 -99067.3652521355 793842.188398534 -486.888721826489
 -83349.8898665183 795645.980406205 -519.348330105515
 -119291.696508278 -791054.108306733 -1699.66914875624
 -139350.228253936 -787767.746422263 -1868.57763130726
 -167637.147852117 -782235.977670355 -2159.14291132625
 -202269.798666695 -774002.556807680 -2640.18986247556
 -244424.013011696 -761741.074503760 -2727.13716490043
 -295570.645627785 -743393.902423149 -1870.63712526756
 -359714.233597373 -714563.033228131 2311.20991452262
 -441311.376648940 -667123.741693542 13790.6529586909
 -545944.179860537 -583385.677230854 40076.2283442888
 -669701.133736979 -428854.462397279 87087.5510813475
 -772168.753918170 -155377.160967873 140047.682315793
 -761314.167372551 203810.030694076 137339.760981002
 -646344.403518836 463709.213630593 84927.4822067469
 -518524.079887246 607858.256340438 40510.7242078910
 -412543.712436959 685236.519260822 16080.9825583995
 -330326.705653711 728600.409363720 5070.60223114226
 -266306.380743938 754373.906095716 959.883825407174
 -216115.822268322 770255.686960232 -357.869680948741
 -177023.893327605 780168.073959459 -563.529523636624
 -150146.569055595 785783.493421394 -556.118066137916
 -173179.090812160 -781028.992725963 -1647.73388057607
 -201345.246856118 -774246.113984397 -1745.43648070289
 -239893.441368168 -763181.961648579 -2104.80468565522
 -286160.907755351 -747064.847762005 -2459.29074461683
 -339432.561993133 -724415.093621609 -2882.35875154004
 -401041.780858593 -692212.920909715 -2600.40985398501
 -471774.388688873 -646086.683292745 -961.170650287467
 -553220.080839845 -577866.600562452 4211.18866252075
 -643319.323240321 -475306.465692703 14967.0309790127
 -732216.210552688 -320648.340203824 32311.9626205870
 -791823.641370247 -103028.992938882 48993.3422126195
 -784496.742781170 148929.745955147 48834.3253815464
 -713270.552698382 360797.545440070 32714.6734320449
 -616766.991354365 509235.778103752 16655.3497336291
 -521364.791111828 606742.386755373 6513.88542371019
 -436158.875115343 670643.330612402 1720.10558447902
 -362991.296269415 712907.628074220 -180.738041268561
 -301022.279034157 741205.244101482 -611.262255566134
 -250445.057470761 759787.380694277 -639.786055531652
 -214359.566972380 770746.186699188 -540.125979095134
 -227117.495819213 -767082.274718692 -1557.85275550691
 -262220.296642312 -755802.686759099 -1677.71169845547
 -309394.214267682 -737747.672374875 -1895.27917155542
 -363498.173023050 -712645.484944376 -2343.28771179267
 -423346.278821203 -678801.042969882 -2659.37421972984
 -487783.922899083 -634080.627692865 -2932.94149324252
 -556791.860947556 -574436.429629880 -2368.94420190753
 -628540.854660129 -494910.091096582 -629.089729898527
 -699628.173787713 -387954.698756226 3401.49311843382
 -760751.587982794 -247330.203551805 9208.24590676177
 -796544.432822252 -72830.8569685129 14581.9344776314
 -791304.082212771 116701.354191149 14786.5953943604
 -745797.196303509 289276.035650331 10291.6074669190
 -676176.500584956 427504.627273596 5013.35380225414
 -597543.629182371 531920.251359309 1567.61519825926
 -519111.832958787 608705.892225612 -204.088192302925
 -444939.951276212 664851.827275519 -698.231140888214
 -377621.284145592 705267.028793226 -764.105626309003
 -319378.467355174 733482.820144957 -589.187626186090
 -276360.696651030 750749.302548402 -500.069640782229
 -281732.877926880 -748748.523524275 -1494.66225482067
 -322835.531955808 -731966.436552223 -1534.62303253893
 -376155.043562494 -706048.302793641 -1782.50517992093
 -435132.923959357 -671308.580591194 -2031.77538515901
 -496486.693053519 -627291.717220221 -2462.74799486187
 -558949.663022002 -572335.705802914 -2667.22152639394
 -620665.022133781 -504744.594434877 -2797.26445753053
 -680170.628346787 -421144.912499228 -2208.84819598748
 -733707.341491806 -318861.142605255 -1052.98504193818
 -775768.604999309 -195402.626284495 940.818020983957
 -798168.685015171 -54039.2937315349 2550.48900226430
 -794291.516497005 95353.4431201401 2950.88224486678
 -764136.018974607 236839.634954612 1769.69494656137
 -714124.205274192 360591.757369804 451.617603366846
 -652261.291893039 463200.696776874 -567.100909514418
 -584370.391471958 546361.142325633 -864.712402295584
 -514878.940034126 612289.843996288 -907.771081061211
 -446924.893111716 663519.158200424 -683.094488789456
 -384858.101524065 701344.393719883 -532.061070894284
 -336952.021486750 725577.817754945 -406.937297748995
 -337868.343942197 -725150.295920345 -1424.95206701975
 -383537.862464763 -702065.912685197 -1470.47661061150
 -440889.696498339 -667543.111408717 -1571.60184904291
 -500965.999913420 -623722.409957811 -1849.93166569365
 -560328.786532957 -570988.132712457 -2050.19122173073
 -616674.665067635 -509614.218989985 -2388.57006339255
 -669117.428660199 -438492.640105402 -2463.98793825291
 -715976.026013962 -356892.125390055 -2518.13578339097
 -755528.906463238 -263005.136781450 -2090.34088946336
 -784404.016813586 -157187.010163037 -1606.93581584142
 -798944.313823770 -41074.5488538030 -929.970495539931
 -796082.252229743 79072.4238072649 -774.259687581867
 -775537.219416287 196319.607504732 -795.618779464533
 -739869.760866378 304288.638719344 -1077.63716440510
 -692415.696633608 400698.583994046 -1071.37321322603
 -636557.415801739 484555.029392100 -1039.17209020602
 -574816.130227201 556404.357300483 -779.491926640151
 -510380.322369943 616045.099342138 -601.759161678587
 -447719.973291259 662983.160972681 -392.151434784491
 -397170.994458717 694445.896827366 -312.314437753432
 -395885.200742452 -695178.343842798 -1406.44413124350
 -444664.691794299 -665034.898222002 -1376.95981529493
 -503089.082646095 -622012.205608062 -1480.20164304201
 -561209.799523685 -570123.750560469 -1571.61237261349
 -615014.793556693 -511618.562535271 -1802.82438488230
 -663379.139196794 -447129.128899780 -1913.05197143477
 -705538.224842676 -377109.075987397 -2134.96926821009
 -741371.663455782 -300605.378174354 -2112.63756000048
 -769848.008582338 -217553.355442456 -2140.37789594350
 -789784.245224726 -127425.837808514 -1871.32402538359
 -799353.406224082 -32111.2842211651 -1731.29536045477
 -797262.051996891 66114.3063604336 -1455.65799089012
 -783201.511520675 163074.830227045 -1411.41707145124
 -757849.132839515 256248.359450263 -1212.49059536674
 -722534.746917666 343427.276462530 -1115.92031705568
 -678268.597702319 424206.313786694 -844.224161506235
 -626342.339997839 497689.489645644 -667.099910518141
 -568359.230751973 562998.762336145 -422.406195860739
 -508513.916976802 617586.844305667 -293.225984775597
 -457571.073918079 656223.036081356 -198.064699393885
 -455292.706113056 -657804.328807314 -1420.12767427631
 -505107.993660506 -620374.101719972 -1374.28359364973
 -561720.088076860 -569621.541608029 -1357.19822338662
 -614544.378748957 -512184.642440976 -1448.65305326144
 -660836.213303086 -450880.549216707 -1493.15949511621
 -700050.735701495 -387203.122133904 -1646.10253412223
 -732777.762445165 -320989.015254857 -1674.20177232019
 -759214.242775931 -252171.601650832 -1793.56823764950
 -779531.248846290 -179800.113933383 -1717.87708730173
 -793188.760885352 -104156.748050027 -1720.88372752185
 -799597.957982771 -25313.4517821958 -1527.98843350358
 -798106.599179134 54988.5501797545 -1454.54317378379
 -788429.203171418 135565.036001287 -1229.87822685265
 -770672.396371270 214622.477871411 -1117.79412268164
 -744912.445889138 291727.091892448 -867.072913838914
 -711275.096837029 366179.238843249 -708.279360561991
 -669591.713590930 437774.734376671 -468.008330455819
 -620431.035799272 505039.826527509 -321.617949554191
 -566378.670124445 564991.304103866 -168.270848686042
 -517669.591651039 609932.933033221 -105.267945216239
 -513298.752628932 -613613.975463114 -1509.85626304719
 -561898.501242514 -569445.452840036 -1396.61777994984
 -613543.347393671 -513383.606526552 -1354.03794583172
 -659054.391141942 -453481.592672687 -1324.62204733862
 -696844.667595773 -392944.800062621 -1375.98949246546
 -727604.338584873 -332550.773426539 -1381.87042810635
 -752213.676122438 -272346.202052915 -1460.02798638705
 -771548.363998321 -211449.873708407 -1439.76394339633
 -785911.898265934 -149466.737069199 -1477.38753287514
 -795394.409908917 -85707.7739534767 -1382.08884838369
 -799735.659810821 -20519.9895443543 -1343.30043219106
 -798678.173034391 45954.1898382606 -1178.28466630202
 -792006.482294852 112803.218491908 -1079.76886472722
 -779527.934321964 179820.552326659 -876.682762504408
 -761044.527043726 246598.224105849 -737.376859491459
 -736052.325776080 313411.385116659 -526.686699633679
 -703983.142242671 380009.988813759 -379.262313859028
 -664381.537597670 445642.378653510 -206.996132648799
 -618589.249662922 507294.126199058 -98.6174314224022
 -574693.416003889 556531.649722718 -21.4170934738906
 -561741.927731145 -569599.223647760 -1652.58850501891
 -606737.326896765 -521409.210751734 -1500.36442971569
 -651960.666936956 -463621.999623098 -1389.32811152563
 -690245.455334769 -404424.785181366 -1343.32449641757
 -721051.258877960 -346530.439471994 -1317.79735016821
 -745375.460727211 -290540.261851168 -1333.71254492513
 -764420.635368175 -235922.284527347 -1329.61901028166
 -779030.952228891 -181958.692579412 -1345.23757704763
 -789727.408146213 -127784.614538030 -1308.85829397523
 -796663.190614377 -72980.3443739378 -1276.73614427734
 -799813.452298370 -17235.1262210208 -1179.80791133947
 -799034.150703138 39284.1305026716 -1087.70435581429
 -794155.231161479 96522.4625334238 -939.704922384968
 -784972.690072028 154328.316835737 -804.029683810991
 -771136.412352525 212951.253506337 -630.217546655427
 -752108.609857102 272639.710275509 -476.822507508120
 -727109.003257574 333635.132911413 -308.980521060606
 -695522.753247624 395282.267050598 -170.499812573322
 -658051.495352887 454937.608079581 -47.1026600904206
 -620944.523016082 504408.464104192 26.0073449397597
# End: Data Text
# End: Segment
