# OOMMF OVF 2.0
#
# Segment count: 1
#
# Begin: Segment
# Begin: Header
#
# Title: Oxs_TimeDriver::Magnetization
# Desc: Oxs vector field output
# Desc:  MIF source file: C:/Users/Victor H. González/Documents/GitHub/Intro-to-magnetism-in-python/vortex_dynamics/drive-2/vortex_dynamics.mif
# Desc:  Iteration: 3141, State id: 19783
# Desc:  Stage: 448, Stage iteration: 6
# Desc:  Stage simulation time: 1e-11 s
# Desc:  Total simulation time: 4.49e-09 s
# meshunit: m
# meshtype: rectangular
# xbase: -4.7499999999999995e-08
# ybase: -4.7499999999999995e-08
# zbase: 2.5000000000000001e-09
# xnodes: 20
# ynodes: 20
# znodes: 1
# xstepsize: 5.0000000000000001e-09
# ystepsize: 5.0000000000000001e-09
# zstepsize: 5.0000000000000001e-09
# xmin: -4.9999999999999998e-08
# ymin: -4.9999999999999998e-08
# zmin: 0
# xmax: 4.9999999999999998e-08
# ymax: 4.9999999999999998e-08
# zmax: 5.0000000000000001e-09
# valuedim: 3
# valuelabels: Magnetization_x Magnetization_y Magnetization_z
# valueunits: A/m A/m A/m
#
# End: Header
#
# Begin: Data Text
 566162.180539029 -565207.852727066 -684.501973852743
 611259.386271140 -516102.238040226 -665.270846679717
 656898.325733084 -456600.598671170 -694.940429740193
 695791.419167458 -394808.452288835 -766.168538696789
 727210.920778426 -333411.959138843 -861.512503312020
 752007.779520023 -272916.398364777 -969.043322966326
 771151.359739455 -212895.359869629 -1070.56899435650
 785288.550301793 -152710.685437070 -1157.28918063255
 794700.032752082 -91925.9448026837 -1215.98354159154
 799416.617519784 -30520.6862832607 -1248.73617171214
 799392.666444440 31141.5990989077 -1251.25553418456
 794629.843423698 92530.5517510139 -1228.38637321779
 785176.351526683 153286.394107403 -1174.04633506159
 771002.080304992 213435.216068175 -1095.76790708252
 751825.189172902 273418.889845050 -997.798090550051
 726996.328232946 333879.518959948 -897.527096964963
 695543.206057861 395245.491312677 -806.290116029450
 656612.282900143 457011.770820071 -742.480010979944
 610930.403885879 516491.552831775 -719.347800812670
 565790.169642485 565580.167901486 -746.734528641608
 517082.637993506 -610430.261619812 -664.217166372441
 566140.205099260 -565229.890961526 -662.218839201834
 618620.206657425 -507255.879267648 -716.144908546001
 665149.529697374 -444494.596320611 -810.546197893487
 704057.579818211 -379871.095622933 -935.420096530430
 735716.836338075 -314196.761872428 -1063.74695039200
 760818.894117967 -247291.735306826 -1186.59262249560
 779790.800280747 -178674.794459065 -1274.99902879101
 792658.021112546 -108127.154499128 -1334.17609970762
 799188.562793091 -35997.2713237939 -1355.56554810281
 799154.996823520 36734.6176650093 -1363.42106690356
 792560.616448723 108838.713811652 -1342.99301744239
 779637.766138499 179341.209169632 -1297.80743721659
 760620.004403550 247902.697691906 -1208.87477399686
 735480.314321583 314749.906247651 -1097.16111861234
 703788.673649469 380368.985967639 -968.171819430115
 664850.489739770 444941.681683051 -852.170079716621
 618291.671544779 507656.215056397 -759.086935496575
 565783.751659756 565586.631903193 -712.860584749864
 516705.288547057 610749.643548444 -719.508826525254
 457601.647105428 -656201.382201729 -691.782436702553
 508242.300302774 -617810.047056558 -714.100075404810
 566156.374281796 -565213.515538216 -801.069924176620
 620728.208781211 -504673.755652514 -944.022699437272
 668876.350363146 -438865.810272619 -1108.37657630844
 709945.528858271 -368748.846738804 -1278.31254103222
 743905.464041075 -294283.355221625 -1402.64369535424
 770529.256321864 -215133.676714338 -1471.83404154547
 789145.281124304 -131330.023793270 -1466.33205749553
 798791.483722273 -43932.5323210673 -1448.49460775295
 798740.837682090 44843.8979268532 -1448.80559043482
 789000.506392419 132196.774540990 -1487.85532431427
 770308.002045130 215924.429023283 -1490.95144412784
 743627.969521441 294983.687593962 -1437.70611954213
 709629.098673442 369357.320713217 -1308.41563404021
 668533.368864609 439387.997048778 -1150.11477657761
 620367.181612432 505117.408640209 -981.563471907094
 565783.939580662 565586.259134168 -846.871420874377
 507865.310545309 618119.931500334 -759.359427358344
 457226.743554300 656462.605986888 -742.912938629854
 395819.797453477 -695216.592468251 -759.934683520917
 445544.734763743 -664446.567109045 -805.469622039125
 505738.313098353 -619861.172629068 -940.920479798064
 566209.717119454 -565159.515219160 -1130.75052596494
 623027.473629380 -501831.593282593 -1348.73512860454
 674476.498860436 -430208.267856090 -1516.16398582765
 719447.206683965 -349847.434785633 -1577.70990771444
 756553.935209594 -260046.218040066 -1451.75822205839
 783661.735964555 -160850.419401722 -1194.22079631908
 798161.153916355 -54202.0744012921 -952.632936227133
 798082.558308030 55347.0129240672 -968.651069024673
 783442.332959086 161915.534171261 -1212.73313692915
 756231.577016363 260981.940372504 -1492.89073492913
 719062.234419182 350637.856611382 -1611.37924403597
 674060.676552122 430859.325517131 -1563.95045287358
 622602.493869482 502358.647855206 -1386.92198460502
 565789.648941973 565579.953610994 -1178.65325872753
 505332.876386258 620191.679854218 -981.979019528398
 445160.459951103 664704.022530398 -852.835290464292
 395457.236722390 695422.837201503 -807.107492681234
 334426.744961264 -726744.816028347 -851.252335468210
 380964.765739923 -703466.409505797 -926.262247183049
 440043.308411110 -668102.293642886 -1100.88678816743
 503057.289435439 -622038.228125487 -1343.98525814820
 566303.913408695 -565064.114890907 -1556.83029039176
 627605.136743398 -496093.903678347 -1622.05625033644
 685005.016099585 -413238.890353937 -1321.89918498256
 735660.468719388 -314330.079891888 -525.013075761994
 775043.146489648 -198261.552450031 691.302776315171
 797135.352393028 -67619.2157910817 1694.58580255571
 797010.213685388 69078.8549767010 1682.58024474248
 774706.372866016 199573.617188487 638.093318931543
 735193.199019645 315421.351898738 -575.223116172106
 684482.334276297 414103.865224501 -1386.67580996460
 627077.664902197 496760.315460526 -1670.67781681923
 565800.183496394 565568.339109231 -1614.35828474494
 502591.773328106 622414.318614354 -1387.57585015024
 439622.178820573 668379.394355948 -1151.12528820898
 380588.417414506 703670.034065189 -969.375375674550
 334086.875451202 726901.060475068 -898.850084275804
 273923.793082599 -751641.434379201 -953.785940033044
 315322.812354551 -735234.943982044 -1049.36006144553
 370010.269148438 -709288.940399052 -1264.81314410050
 431607.470457388 -673582.013428592 -1504.20439389704
 497587.971783666 -626421.269352070 -1613.57973435881
 566455.216129328 -564913.233127181 -1235.78221041095
 636381.049422699 -484787.732103535 121.398421480916
 703695.680107022 -380530.431228578 2996.78289294016
 760795.159317325 -247263.097557199 7189.30773760876
 795282.047489076 -86076.0269131254 10834.3219646871
 795074.884172039 87975.5091610095 10781.3889031039
 760269.675070839 248876.834622988 7095.23471934864
 703025.485109425 381768.070830768 2882.25273191655
 635694.272075160 485687.956663362 34.6843027445559
 565817.334219136 565551.944406005 -1320.02868790381
 497023.617285268 626868.988975799 -1671.68212485968
 431120.693001221 673893.535497968 -1565.52872686293
 369596.122549600 709504.749432764 -1310.23992119549
 314971.299374507 735385.526550779 -1099.04957440521
 273617.831273062 751752.807041595 -999.757225391217
 213885.573797756 -770877.331481437 -1049.34706581098
 248422.789669520 -760450.365686988 -1165.71837940437
 295609.810838518 -743379.399956707 -1381.10681018935
 351379.414712277 -718700.277874161 -1554.83120036898
 414992.370610328 -683944.184481191 -1298.01755703804
 486719.108550601 -634905.102498652 142.101671611583
 566693.264545995 -564660.399121351 4168.64274299016
 652622.908527795 -462523.223114058 12474.2673093616
 735042.368676126 -314750.869354363 25389.1018286028
 790966.488065828 -113824.759854275 37628.9622621640
 790601.504346250 116373.875190530 37501.7666062027
 734207.927773745 316712.647063622 25135.9898181099
 651683.397950041 463851.829197160 12256.8098107784
 565836.460464738 565520.220746098 3997.49121589261
 485999.067190329 635456.454496184 33.6046077983444
 414406.452783477 684299.176436795 -1388.89140705521
 350907.982724919 718930.443233430 -1614.14129254752
 295230.837716326 743529.876585471 -1440.51591812115
 248115.313609211 760550.671004633 -1211.60513590005
 213626.062581140 770949.219301858 -1098.47345673320
 153663.527854581 -785102.697139074 -1129.22638823813
 179790.645191718 -779534.329195343 -1246.39781447825
 216471.252207204 -770154.610250422 -1439.88814371448
 261670.919698840 -755993.606953920 -1412.80882160573
 316277.411146919 -734825.404176175 -473.894000078813
 382858.096409301 -702431.694630416 3064.70104385301
 465212.444874999 -650707.246018849 12548.3509670132
 566645.247910701 -563736.137148779 33387.5829133165
 682009.226301020 -412333.011927572 69605.3339552528
 776054.393757660 -160533.513702684 109400.954784231
 775366.825053559 164104.066226655 108977.713566768
 680687.940945948 414617.059013307 68968.2639039311
 565408.076789149 565005.440652589 32902.2603261585
 464242.524724325 651405.094061099 12258.9424028190
 382133.051307107 702827.168919434 2881.27183954915
 315737.534764198 735057.463411098 -578.467517681842
 261264.710993329 756133.923437147 -1496.86910546409
 216160.957284907 770241.654181593 -1494.89440283274
 179548.236054936 779590.108423002 -1301.45248584023
 153464.031107329 785141.646108024 -1177.58357317990
 92821.5843815897 -794595.972753796 -1180.48987196774
 109183.203565956 -792513.309735808 -1296.90040827406
 132632.950945417 -788927.422882632 -1421.88159837770
 162463.147947869 -783329.075465292 -1133.61790780174
 200297.458225939 -774519.406743381 785.370046219502
 249839.472859851 -759951.465493807 7349.00639041177
 318060.529317962 -733606.975614822 25657.4554321355
 416515.002772676 -679426.640062998 69962.0842884495
 556619.696309491 -551831.136703819 160177.745784176
 706693.563274500 -246152.915090992 282830.249475894
 705408.163498634 251358.364442491 281457.448816476
 554757.371917396 554169.086031002 158558.766363981
 415160.879710240 680353.506913422 68996.7360737324
 317178.188685077 734006.434259042 25150.5683590204
 249258.396044225 760144.641929345 7097.55926841808
 199900.498469529 774622.093547259 634.744118338248
 162181.640758009 783387.281196330 -1217.80986311639
 132426.565185879 788961.961165366 -1492.87212141174
 109026.604573393 792534.783760488 -1347.59968559193
 92695.0512012656 794610.664282478 -1232.75762178679
 31330.5962009993 -799385.351362823 -1205.72311300578
 36961.7823839238 -799144.612653486 -1309.46932540725
 45117.1949074755 -798725.549797095 -1390.97987390029
 55698.7006013980 -798058.206665579 -868.058198997603
 69521.3834995377 -796971.383463801 1841.51462279361
 88579.6551815815 -795003.053306629 11126.0919037329
 117233.581751851 -790438.689551724 38248.7302976824
 165469.532617223 -774834.067551305 110688.759760590
 253609.248271436 -703185.069369492 284979.135038027
 387104.415103180 -377369.099972153 589697.154642815
 385718.966731339 384618.544238931 585909.083502922
 252240.018750385 705005.509368848 281677.483481332
 164728.811780497 775217.899368198 109094.578547898
 116833.561726659 790531.675070642 37544.5011189040
 88344.1586106565 795033.876504248 10790.9614958277
 69370.7069706614 796984.869765445 1679.99385347668
 55595.9491211733 798065.248481206 -974.478294998949
 45043.7497594746 798729.581297861 -1454.84272306605
 36906.9362119450 799147.047950939 -1368.87207131356
 31286.7377110888 799386.991056593 -1256.41270426598
 -30436.7730846428 -799419.889561766 -1201.25652854871
 -35907.4422695040 -799192.680689538 -1309.47391413340
 -43828.3642088063 -798797.326319723 -1380.56337855998
 -54102.5478791517 -798168.005226352 -865.878727200729
 -67520.5711971314 -797143.326676472 1867.94014337697
 -86024.4763919771 -795282.954310690 11171.9310930841
 -113871.052414996 -790922.130642417 38413.1056016069
 -160847.405537850 -775732.781596179 111205.951678844
 -246976.759273319 -704838.200642650 286715.174508923
 -377991.022578311 -379103.897006892 594477.099747661
 -376627.373064224 386378.007085782 590646.982129902
 -245636.158971540 706651.582773937 283383.870339859
 -160124.367162454 776109.313366810 109610.769298107
 -113481.803070695 791012.595195252 37695.5516512808
 -85795.6527654845 795312.145037960 10848.8672986671
 -67374.3515874852 797156.090767438 1692.24718703635
 -54002.9016179002 798174.646505969 -959.318465806806
 -43757.1738895182 798801.096468432 -1455.33983457484
 -35854.2971131206 799194.979324002 -1361.76423521539
 -30394.2840669333 799421.424317141 -1254.52732598305
 -91948.2561683997 -794697.517171162 -1172.34362714126
 -108161.958713148 -792653.357141566 -1283.00410709361
 -131402.165626138 -789133.368449361 -1413.38902133663
 -160971.381101236 -783637.029984358 -1104.40194493267
 -198489.533567482 -774984.661529745 824.292296905992
 -247655.867597787 -760664.736899565 7465.20474609303
 -315457.228860596 -734720.267899015 25939.6356565479
 -413543.517603949 -681158.559328393 70744.4421945738
 -553644.860411508 -554234.956497998 162175.773577878
 -704433.058182803 -247868.012744201 286941.657480166
 -703139.258994187 253105.676558052 285539.312451362
 -551776.739918619 556569.444924605 160539.348015048
 -412191.983562954 682078.706775529 69759.6333839261
 -314578.772206836 735114.282410226 25439.8874474401
 -247078.636420904 760854.996469945 7198.73399329107
 -198095.662726360 775085.567373451 686.773893106623
 -160692.308778301 783694.160479232 -1201.96932224719
 -131197.680724602 789167.280182693 -1473.92724936807
 -108006.860718841 792674.409906516 -1340.86427939028
 -91822.9675333720 794711.928158236 -1222.24235896163
 -152826.380668735 -785266.107052698 -1112.87285706133
 -178827.323188483 -779755.902228748 -1233.45882484959
 -215339.513133232 -770471.864527474 -1414.23304344918
 -260348.951944408 -756449.928629837 -1388.77549036578
 -314759.144462217 -735477.063016730 -413.223544052118
 -381165.674831355 -703351.043080857 3168.36352519983
 -463429.061218360 -651973.620343012 12802.4839423515
 -564976.242744656 -565375.795858402 33941.9296977938
 -680820.042644798 -414095.558074264 70773.8533379303
 -775586.269903091 -161469.644800317 111326.060497392
 -774890.777752778 165060.762451787 110901.881194730
 -679490.668964664 416384.422134086 70117.3572948731
 -563734.752484668 566642.310013111 33460.7433279004
 -462458.681245214 652668.207492335 12497.1624650808
 -380441.556728269 703743.731745191 2996.98907629072
 -314220.724875320 735707.178531146 -532.462738107375
 -259944.233157946 756588.965231396 -1460.59508871971
 -215030.564596049 770558.022753681 -1479.81736785653
 -178586.088636539 779811.108824618 -1281.99033618232
 -152627.912824821 785304.632511625 -1163.77941223853
 -213093.034214503 -771096.814905186 -1029.95744310655
 -247530.602417599 -760741.282334196 -1141.14823865954
 -294596.423740552 -743781.618238397 -1360.69465646268
 -350249.325840817 -719251.774037476 -1515.02211098334
 -413773.266415724 -684682.490677225 -1253.37930966157
 -485470.571010221 -635860.258074294 238.505137811892
 -565521.580038685 -565832.645061313 4331.31544278534
 -651689.816087368 -463828.008484534 12804.7707235829
 -734521.831890806 -315917.753698259 25954.7948175160
 -790852.598872576 -114338.159495798 38457.1467949094
 -790484.770198068 116900.222953525 38316.6537986294
 -733681.141524965 317885.258617981 25708.8491380667
 -650746.034103737 465157.563347781 12571.4103669047
 -564662.467628979 566691.181876057 4171.57465110136
 -484749.835249612 636409.918245722 114.821370286403
 -413187.543847216 685035.970506200 -1331.43611714415
 -349778.500331665 719480.703209534 -1586.95143174133
 -294218.231350346 743931.207944804 -1410.73982667782
 -247223.923990474 760840.920833923 -1193.56245700747
 -212834.296691646 771168.206025496 -1077.11057501797
 -273177.340358207 -751913.080676274 -927.266268041268
 -314504.964984342 -735585.191422048 -1026.23622380003
 -369118.074552248 -709753.711152373 -1231.48052131290
 -430663.414415008 -674186.063739326 -1474.76916135098
 -496634.446169448 -627177.639780377 -1560.46066283187
 -565554.906914313 -565814.694614056 -1174.14817831426
 -635616.357724901 -485789.861368822 237.452715913317
 -703156.748603604 -381523.988719968 3167.47918907087
 -760537.390924431 -248046.585917524 7467.81229813235
 -795243.763045734 -86384.7237392462 11181.9873616309
 -795034.784232854 88292.5083882626 11141.1320039067
 -760008.503285545 249665.624421078 7358.73060381572
 -702483.105470918 382763.755117263 3065.01165841288
 -634927.161532520 486690.333963483 135.553571799400
 -564915.666867101 566452.767703327 -1245.50766289901
 -496069.507603538 627624.394042488 -1632.06273823785
 -430176.611847839 674496.668781554 -1525.26119057451
 -368704.201992352 709968.701746657 -1286.06895141750
 -314153.899550211 735735.129865649 -1070.55078009555
 -272871.890261359 752023.922477134 -975.462607301886
 -333723.005609072 -727068.277799440 -821.550365535499
 -380218.490288672 -703870.088234044 -893.606178863324
 -439266.602524480 -668613.267175127 -1072.78329755622
 -502281.453873991 -622664.952474324 -1303.09415521293
 -565570.887808425 -565797.897036132 -1520.05693312840
 -626963.290077049 -496905.015813934 -1561.45916233884
 -684503.594878483 -414069.139297049 -1255.57964119821
 -735337.789661291 -315084.372346802 -416.411898100189
 -774902.980756282 -198808.189709699 821.047733425547
 -797117.811171617 -67821.1980770036 1865.53058665594
 -796991.841216545 69286.5196169922 1839.35685125312
 -774564.124900183 200124.477592551 780.951933100817
 -734868.140568926 316178.089597801 -481.284796206191
 -683978.890457770 414935.136795489 -1307.53992979413
 -626434.312861420 497571.518126597 -1623.58216123379
 -565066.252124265 566301.754643454 -1566.33265315055
 -501815.473419210 623040.439260458 -1357.08628770862
 -438845.374983982 668889.745887198 -1115.66219282152
 -379842.271882128 704073.122159730 -941.883047146440
 -333383.404862479 727224.004242110 -867.765158742628
 -395153.277300478 -695595.690086799 -723.444098036781
 -444865.488528280 -664901.571388479 -772.969357320131
 -505069.092510227 -620406.637924855 -903.000373188425
 -565581.716176419 -565788.048611787 -1098.35103822099
 -622472.290162611 -502520.196836969 -1303.74485578348
 -674022.565662676 -430919.251590231 -1476.34224341462
 -719116.396318746 -350527.181421657 -1517.77143464734
 -756355.041541857 -260624.464360604 -1392.73506562411
 -783580.559004317 -161246.012987154 -1109.43509412565
 -798151.678440083 -54342.7863781109 -871.648977964360
 -798072.615319997 55491.7615605854 -874.685774259232
 -783359.890394661 162314.446384137 -1141.32198602113
 -756031.115813543 261562.479905559 -1421.62842649309
 -718729.832119716 351318.917971248 -1564.06415313587
 -673605.427574419 431570.895521035 -1513.30150871750
 -622046.283819505 503047.305897890 -1352.33694720526
 -565160.974197636 566208.245773004 -1138.27177602316
 -504663.270926060 620736.722907457 -950.690443766473
 -444481.085772834 665158.550533004 -816.727026866620
 -394790.756942477 695801.452877261 -772.273708064899
 -456967.213339907 -656643.390838809 -650.538294053670
 -507626.798558030 -618315.922142456 -673.654844003763
 -565587.177271152 -565783.137264177 -765.828933794164
 -620228.183123962 -505288.219440944 -903.411838697163
 -668461.749737893 -439497.140057093 -1073.78721780605
 -709626.539735335 -369362.495498619 -1233.29732317953
 -743685.796454965 -294838.221786477 -1363.49731676243
 -770403.810362022 -215582.832779090 -1418.16452538958
 -789096.176549247 -131625.272331565 -1418.39310561999
 -798785.948677800 -44035.0495217121 -1386.58159795544
 -798734.999024860 44949.3878644203 -1397.80662852526
 -788950.653072697 132494.617410422 -1429.46613487071
 -770181.479302664 216375.582326260 -1447.86468002969
 -743407.168366598 295539.933233659 -1389.20315340332
 -709309.000529116 369971.785858811 -1272.57095205767
 -668117.820718065 440019.715000210 -1108.17420844748
 -619866.380227546 505731.917855254 -947.589598526965
 -565214.184575342 566155.697517651 -807.293709161922
 -507249.457265915 618625.465559761 -722.124922354398
 -456592.136649669 656904.200972529 -701.066569398646
 -516476.688631000 -610943.083587344 -615.400312405785
 -565586.875983482 -565783.618148715 -618.990949109033
 -618142.639526141 -507837.792045199 -673.921591395878
 -664756.240725101 -445082.623701734 -773.625111468170
 -703749.750056535 -380441.176305682 -894.799705629364
 -735491.744191213 -314723.429706341 -1028.11499612226
 -760670.681217381 -247747.464763763 -1143.87036545070
 -779709.307655277 -179030.346995231 -1237.09760915301
 -792627.062033111 -108354.430497634 -1287.60408925035
 -799185.127597441 -36074.9610423303 -1314.91933433299
 -799151.397548528 36814.5735483935 -1315.66359110238
 -792529.155598249 109068.043858158 -1303.58570088190
 -779555.571868052 179698.467949735 -1253.38980046571
 -760470.952408272 248359.729709090 -1172.69010544274
 -735254.366780383 315277.497836671 -1056.16676035718
 -703480.005263773 380939.643790855 -932.728565819018
 -664456.440308809 445529.999160277 -811.652875765808
 -617813.443031071 508238.163750355 -720.081774497286
 -565229.898994126 566140.189962894 -668.275293279720
 -516098.957572249 611262.149040885 -671.671614150222
 -565580.057715803 -565790.422980491 -628.949718177323
 -610761.702411192 -516691.168842916 -615.554647902330
 -656493.770375035 -457182.136254885 -650.959439254599
 -695474.674778736 -395366.225424905 -724.247660001442
 -726973.321050917 -333929.803076250 -822.859440218903
 -751840.202178336 -273377.846488390 -929.213543361418
 -771044.340802613 -213282.812582034 -1032.65355329449
 -785231.182066735 -153005.700396978 -1116.40320136542
 -794678.640396058 -92111.2037224323 -1176.71027827956
 -799414.285585330 -30583.4035961226 -1206.41061532277
 -799390.210226901 31206.1537233334 -1211.51276754963
 -794608.113269983 92717.5169653843 -1186.74904393528
 -785118.466439168 153582.889020640 -1135.71839972097
 -770894.437156492 213823.880457495 -1055.89169620808
 -751656.920133263 273881.274303501 -960.209179172684
 -726758.015353779 334398.043949737 -857.508965323964
 -695225.747115070 395803.706052668 -766.043906798895
 -656207.038900106 457593.525978256 -697.911701158720
 -610432.081270140 517080.481574511 -670.619771641503
 -565207.482304737 566162.541874105 -691.466119045873
# End: Data Text
# End: Segment
