# OOMMF OVF 2.0
#
# Segment count: 1
#
# Begin: Segment
# Begin: Header
#
# Title: Oxs_TimeDriver::Magnetization
# Desc: Oxs vector field output
# Desc:  MIF source file: C:/Users/Victor H. González/Documents/GitHub/Intro-to-magnetism-in-python/vortex_dynamics/drive-2/vortex_dynamics.mif
# Desc:  Iteration: 1342, State id: 8475
# Desc:  Stage: 191, Stage iteration: 6
# Desc:  Stage simulation time: 1e-11 s
# Desc:  Total simulation time: 1.92e-09 s
# meshunit: m
# meshtype: rectangular
# xbase: -4.7499999999999995e-08
# ybase: -4.7499999999999995e-08
# zbase: 2.5000000000000001e-09
# xnodes: 20
# ynodes: 20
# znodes: 1
# xstepsize: 5.0000000000000001e-09
# ystepsize: 5.0000000000000001e-09
# zstepsize: 5.0000000000000001e-09
# xmin: -4.9999999999999998e-08
# ymin: -4.9999999999999998e-08
# zmin: 0
# xmax: 4.9999999999999998e-08
# ymax: 4.9999999999999998e-08
# zmax: 5.0000000000000001e-09
# valuedim: 3
# valuelabels: Magnetization_x Magnetization_y Magnetization_z
# valueunits: A/m A/m A/m
#
# End: Header
#
# Begin: Data Text
 523330.610385049 -605079.950400872 -1823.69320089590
 573171.442939422 -558096.493954075 -1673.45000256778
 623816.461106847 -500849.817837873 -1575.69790880064
 667275.566048003 -441294.664222360 -1529.14492229193
 702796.303609499 -382197.655081970 -1519.23752876111
 731377.408184773 -324167.824043908 -1519.42474692140
 754255.492540474 -266638.996428155 -1515.76921532914
 772282.469129010 -208752.477332364 -1480.23092796669
 785889.341981782 -149586.000881846 -1403.74485487607
 795067.020844796 -88695.0793741190 -1270.92871499997
 799575.827279357 -26024.9542051126 -1094.61826867994
 799101.716569779 37890.2279625396 -881.589574601205
 793417.375203251 102413.111248140 -650.668931757502
 782383.337816544 166961.528564612 -400.857097022354
 765793.362448601 231431.429664493 -139.259161834997
 743230.117342800 295988.131594302 136.491470217703
 714002.277537186 360833.164091647 418.764039848498
 677544.801528498 425361.659982017 707.205098918218
 634750.554624405 486919.655519565 991.197618005555
 592662.328083047 537354.476017385 1237.72988351193
 474155.685793864 -644339.688002756 -1658.94359826502
 525380.667149530 -603301.508297492 -1563.54452679841
 581048.936273306 -549890.734720556 -1521.02733265186
 631171.701118969 -491548.499936235 -1534.89967912085
 673749.082083260 -431346.389949606 -1570.43605623607
 709254.252286602 -370075.358909721 -1623.06537576518
 738489.885748592 -307619.853285624 -1647.57748306808
 762194.713859078 -243015.500538211 -1638.49426023057
 780486.891899628 -175606.971072252 -1550.25278212268
 793102.571942593 -104815.806620797 -1398.94977631870
 799392.220757205 -31155.7471996692 -1181.86686851193
 798765.654535404 44413.0804524246 -952.585615485045
 790914.238857125 120225.451737996 -712.409607395106
 775836.282927250 195135.430942321 -475.062714718190
 753638.974994046 268380.790006890 -216.622256052511
 724179.778580144 339946.533896497 48.8607419213510
 687140.025389678 409680.949035532 324.815050923251
 642375.212929695 476816.250776362 590.600627751434
 591641.643940090 538478.835879555 841.704025966700
 544000.018331417 586568.743336112 1043.74159205975
 415233.255696975 -683797.387625697 -1573.54363257757
 465499.272602920 -650621.313085256 -1527.79755533479
 524035.319522289 -604470.458411386 -1564.86456365505
 580137.048399464 -550852.324927264 -1649.60497904427
 630701.197019647 -492151.236803366 -1777.69257766073
 674931.339419043 -429492.866613074 -1888.01443364995
 713152.134014167 -362505.370126667 -1972.40471697722
 745342.655569856 -290620.957304037 -1945.49833175986
 771215.114821352 -212659.349652790 -1802.13105548116
 789602.438259867 -128552.372690713 -1508.96310775797
 799049.800043940 -38962.0890456519 -1171.60869636696
 798214.534304686 53411.6825769939 -865.672598474207
 786662.075769980 145472.820082936 -661.182564623312
 764947.629700006 234211.212830941 -481.249003104820
 733967.177614414 318264.194637194 -290.855065356424
 694551.431059412 396986.532369427 -52.2553293318171
 647203.381747709 470242.217855044 197.992676374963
 592963.474634614 537023.385211705 448.870812602247
 535002.020714346 594787.688457880 665.950822827989
 484061.279150824 636933.264377631 833.520319654947
 354733.929595425 -717050.475064821 -1566.97259180942
 402059.633880759 -691625.312106792 -1574.31154953566
 460083.712867418 -654461.736616900 -1677.03861722353
 519425.922214782 -608435.053690444 -1869.96578303424
 576187.705742749 -554980.547900005 -2078.26935667113
 629119.463189911 -494169.477640497 -2286.57039190519
 677356.511739635 -425655.452797105 -2364.63697096861
 720435.659130819 -347803.685147978 -2248.92201476561
 756766.528315332 -259424.722335201 -1798.62805043884
 783936.252343397 -159507.895236305 -1087.94258799967
 798437.566338110 -49973.4846696225 -321.698697532862
 797387.762227089 64596.8058298579 96.5766845282444
 780181.684757345 176964.762196849 108.211842238182
 748736.827381947 281767.917350416 -63.8280888860591
 706052.763249969 376150.867120204 -143.776918162340
 654652.111413687 459815.838979498 -85.1186365185478
 596692.300906374 532877.368118696 92.6603979443920
 534418.912168708 595311.966947024 297.197040035105
 472207.336622934 645770.848146780 492.872463016129
 420686.097338096 680457.791443101 633.696157433175
 295371.317952704 -743473.707096868 -1622.15490094039
 337936.578370674 -725117.988184098 -1664.99578661607
 392508.273658672 -697089.525532801 -1857.01425530335
 451254.910346377 -660578.897410397 -2127.48310187232
 511284.349773074 -615290.404232715 -2456.04077081421
 570724.006298896 -560595.147433551 -2681.28851343946
 628903.963951650 -494441.776299617 -2670.95031442808
 684267.760516083 -414455.374797405 -2091.46356580944
 734500.897992039 -317029.768844336 -745.999594067614
 774542.504412977 -200205.126787406 1347.61482328156
 797322.855554840 -65307.1868645621 3351.91791563925
 796148.219937556 78305.0461156169 4041.24276578187
 770167.082205601 216408.948605399 3135.67383774863
 724931.993207298 338335.017404950 1738.16630027855
 667434.224470998 441056.800149024 674.571791759213
 603243.547197122 525449.512186986 181.404218858850
 535953.516551820 593930.822459465 78.9199708820636
 468779.797059720 648263.424860824 184.000988110861
 405867.832134897 689399.153683291 331.268593638808
 356488.606789107 716181.307027345 456.830565641634
 237637.858725747 -763888.295895273 -1708.65281944600
 274151.553256622 -751556.842205486 -1799.66138478926
 322361.146295220 -732174.237423861 -2043.87182077314
 377035.415589647 -705576.647406361 -2426.93756449596
 435846.682789654 -670842.673506374 -2788.63839086543
 498409.430713908 -625762.896555986 -2972.65357887926
 563937.976307954 -567422.082419982 -2477.75298645584
 631935.563845156 -490568.034055522 -668.663296100675
 699144.407444827 -388826.715386909 3298.93013710634
 758240.804115435 -254917.750003997 9371.43037521761
 794991.995027027 -88055.8051501802 15293.8883970278
 793974.669153906 96601.0912475963 16506.1779864222
 753850.839786084 267499.853379204 12358.7942744851
 688886.904048679 406676.434575165 7007.92347682118
 613891.908637906 512958.820594646 3157.98718449556
 537540.345086354 592493.988270682 1118.60070801853
 464241.616706195 651520.998585481 331.240389204863
 396289.218286210 694949.518151047 150.637748951163
 336615.572233517 725734.049572204 214.059411306135
 291855.193209186 744862.706234339 308.314916278842
 181277.870222625 -779188.703310579 -1816.14997407121
 210450.134420220 -771820.588791354 -1928.63689655314
 250238.074484635 -759852.500559479 -2254.65556744451
 296813.120893526 -742896.255856425 -2669.13842860084
 349956.280584909 -719389.519440436 -3053.03102426525
 409727.913700115 -687106.002329630 -2894.52889860104
 477847.732039720 -641607.205692496 -1318.55525617992
 555108.440848742 -576057.481946072 3520.85109449091
 641066.534524428 -478370.377823902 13981.4138576259
 727158.876229089 -332062.727486378 31213.9990317773
 788831.814033970 -123776.006219968 49232.8086961308
 788677.494518570 123718.039877216 51784.7105703054
 724114.235430105 338110.078771430 36608.0412020624
 631621.966245897 490569.667846017 19876.9400340102
 537999.341529516 592011.786380234 8874.30564563004
 453402.597416897 659101.704215373 3320.86675479126
 379578.973818280 704215.003896808 1015.34313491874
 316375.830701910 734783.133645180 283.298864286817
 263957.549815516 755199.569106279 150.721861246573
 226277.848929245 767331.932542026 200.960877672952
 125663.822830008 -790066.414207421 -1914.35972997825
 146722.198118657 -786427.570756288 -2067.01078697003
 175767.394235502 -780448.598449505 -2410.04188054394
 211219.224539308 -771607.490836389 -2884.31450887105
 252954.159165741 -758949.613526965 -3110.86612101596
 303206.527711129 -740310.840168345 -2379.38702179191
 364533.486858365 -712119.080527999 1323.67172681301
 442239.447857039 -666543.673451609 11991.7530301387
 541290.194951691 -587924.205509476 36743.0731596157
 660620.007152971 -443608.428180781 82418.2540229147
 765925.882784124 -185435.049619953 137736.648913086
 768236.035540746 170598.074385970 143908.619312525
 661160.702055575 440693.766717755 93035.1010828510
 534846.493669737 593123.014300975 46306.7826102538
 428536.300359339 675258.457142946 19561.5779337467
 345198.561468837 721655.378580176 7174.10106901768
 279946.246386074 749416.450538539 2254.50583605657
 228061.051290414 766803.639721620 578.786651648370
 187375.546828179 777746.988440114 162.552067000228
 159067.670201539 784026.440684488 128.857543742035
 70457.7057012459 -796888.762593432 -2002.93774816826
 82470.5897532269 -795734.848672290 -2156.95021787354
 99537.1142272186 -793779.459041618 -2556.03108641824
 120403.543807612 -790881.843821382 -2982.57477036196
 146238.190025390 -786514.418167435 -3076.00273718169
 178222.645340168 -779893.887910866 -1487.37595326329
 220558.592689324 -768979.313011562 4972.25815626340
 279496.297306945 -749191.987058268 24355.4166335104
 367926.444769344 -706544.293057244 73656.5895737077
 501709.840265303 -596437.102986616 180416.236414290
 660634.792480821 -295432.432522835 341000.511403522
 667708.707341750 257511.618843310 357565.166509137
 507519.068164988 584630.955671566 201571.429323438
 365930.158298469 705840.580494621 88792.9849406776
 271591.644376937 751695.646891119 34520.0398257754
 208808.331664183 772173.854685554 12108.6236903245
 164428.014284833 782910.905203514 3733.98336375708
 131566.756180225 789106.623993476 961.580902839418
 106771.676911498 792842.841302927 194.946681122603
 90029.7206947199 794918.009998979 82.2854452521635
 15352.0459947075 -799850.044917662 -2054.34393181254
 18088.4794985862 -799792.354655429 -2235.25035620329
 21759.0453308480 -799699.764480236 -2613.54864970825
 26604.7057522331 -799551.569946204 -3078.41329240056
 32222.8980182739 -799345.155898458 -3001.09729497517
 39770.8856246310 -799010.272283264 -928.139244564657
 49673.0147444789 -798420.278045380 7592.83953036394
 65047.4147320916 -796628.986898378 33927.7330503610
 91272.6074661252 -787547.923780417 106946.616942708
 141733.869762632 -732060.352360220 289826.069676866
 224474.646641143 -432851.416813576 634232.436869808
 230260.290204522 370498.502207001 670604.994476852
 146193.328562415 716436.832321856 324570.140303244
 92092.2222034148 784443.608697979 127150.491082534
 63697.5445732744 796132.926081879 45988.9858949054
 47257.7065891757 798453.740559832 15438.0489033831
 36632.0064828595 799147.319147232 4653.85870361911
 28972.9355328484 799474.362883102 1145.46901623162
 23403.8628311238 799657.565133944 194.238603139384
 19633.0145845640 799759.053814433 24.0865995299447
 -39538.7130621894 -799019.621428889 -2082.00408759743
 -46388.5108030873 -798650.782346820 -2243.64040908283
 -55885.9621624299 -798041.141549362 -2663.76195852085
 -68090.9423223854 -797090.977210790 -3098.00303382319
 -82923.7292634521 -795684.458773685 -3145.98014435547
 -102346.569420263 -793425.254124859 -1243.32007437098
 -128252.375256984 -789626.437519230 6435.63607040536
 -166694.560028743 -781860.085437009 30128.5654696181
 -228681.646972871 -760865.942861439 93742.8468276394
 -336361.156773910 -683349.227770915 244734.560531629
 -491612.335058557 -377322.473773730 505910.133129932
 -499276.494279638 326991.385722353 532728.463593987
 -341396.083607456 669907.540761273 273262.878797458
 -227299.410404922 758850.363769958 111718.858908318
 -161516.811173559 782434.891451406 41327.4769100620
 -121229.381177097 790637.830480737 13973.4803156618
 -94300.8310226681 794411.926721224 4128.43208827312
 -74823.0783757015 796492.692040846 947.875471539218
 -60530.8202396451 797706.721701020 77.1629869059649
 -50915.4360667852 798378.115451947 -56.0136253398129
 -94289.4359330724 -794421.320790551 -2065.75526571749
 -110175.408792396 -792373.879980269 -2239.11197605745
 -132631.316425217 -788924.647914288 -2614.15696373034
 -160038.365667593 -783822.620687182 -3133.81772357248
 -193677.102129294 -776194.669033810 -3319.01706724835
 -234850.778790698 -764748.294811185 -2270.96560649421
 -287979.755295375 -746364.605898309 2745.10514910088
 -358834.572190239 -714793.287365319 17558.6485393988
 -457783.520945762 -653854.104683227 53935.6815048797
 -591914.207130811 -522946.569912030 127139.515548655
 -729686.310193542 -237232.954329797 226447.375997362
 -733676.404776216 213792.649728766 236667.775577069
 -593985.668514504 516695.703422175 142149.835259991
 -452453.226674551 656465.130511433 65875.7170313555
 -347296.083806711 720205.860908147 26247.8205967016
 -272132.044266959 752237.735695202 9085.12406306694
 -216637.224212005 770104.955999124 2582.60165457009
 -174509.290710714 780734.475843438 430.911958483383
 -142270.890946212 787247.727502122 -95.5621010486822
 -120318.911201527 790900.332300911 -154.834064962487
 -148859.589709892 -786025.883368618 -2033.03369051185
 -173381.682736540 -780982.777937597 -2166.25398312926
 -207002.331961061 -772750.609456232 -2555.41536842027
 -247694.094061055 -760682.890557810 -3029.15497937387
 -294984.836524534 -743620.862873640 -3458.10926035360
 -350841.627037553 -718957.881262272 -3117.32393354543
 -416945.426281152 -682756.133662692 -757.264287083176
 -497022.224792870 -626838.171883691 6543.26611548773
 -592494.942536992 -537048.132104249 23001.0189214251
 -697635.386609443 -388081.538310722 51938.2996706291
 -780826.418867504 -152212.678303954 84506.8290855122
 -781258.012024629 147721.544916458 88398.3247285812
 -695142.221560327 391485.955520744 59296.1924088159
 -583291.394716678 546673.597367201 30317.1039361345
 -480548.517423577 639462.318784878 12691.1487371587
 -394496.657515418 695955.326354056 4309.40002572359
 -324036.668041626 731436.469939682 963.434823080326
 -266283.518237190 754382.584263687 -66.8944421162175
 -220139.013143395 769115.558651641 -268.946511575791
 -187633.524894708 777684.774715394 -226.961349548642
 -203698.033387882 -773629.895309100 -1973.89917200106
 -235767.784611777 -764466.577419590 -2098.51081270768
 -279174.903660671 -749703.679359458 -2401.31650266056
 -329390.782119258 -729035.901462768 -2892.58245066511
 -385836.674770764 -700798.813778636 -3329.11524244840
 -447891.601261382 -662857.958013381 -3527.18270667339
 -516560.343448857 -610866.723484714 -2694.01467083060
 -591214.137478418 -538948.804765010 171.720754962407
 -669956.275301796 -437166.262698419 6651.91266024916
 -743630.898205496 -294490.605111046 16981.4821325306
 -792641.389342082 -104715.032648434 27466.1580730297
 -791622.918057294 111735.020335664 29128.0077767778
 -738888.603825647 305956.077635693 20844.8961227552
 -658820.682840574 453687.373890866 11093.9007336958
 -572415.880893245 558855.670280678 4516.53587871648
 -490137.658954031 632268.705640702 1165.82266819981
 -415305.180536156 683755.510737534 -92.4980277403509
 -349355.508800490 719687.822162994 -408.779937854408
 -293481.786262356 744223.300037735 -347.581930782642
 -252777.566204393 759014.779118974 -259.042004962212
 -259260.704627055 -756822.422960650 -1925.39353241293
 -298056.917954626 -742400.229292623 -1993.29015709776
 -348766.918995738 -719969.788234208 -2267.21066703535
 -405574.775733902 -689566.665217085 -2629.73568691958
 -465599.396866420 -650544.092037511 -3096.11897618777
 -528127.475522817 -600890.897581787 -3390.98824102818
 -591727.342561775 -538374.823723957 -3361.73243709247
 -655513.947342478 -458580.030712499 -2412.52382488300
 -715855.526858530 -357142.567239797 -226.564480451708
 -766456.997852201 -229200.318097527 3299.18586699330
 -796328.364089211 -76267.7672563941 6660.64747052342
 -794919.098371237 89702.9956176581 7549.80939347873
 -761228.674599058 245969.989482586 5446.94796173284
 -704747.503827477 378581.414016578 2658.72340587732
 -636671.454934025 484405.908232576 611.998010571943
 -564395.350426012 566972.464386321 -336.221950648949
 -492631.661797950 630328.225549908 -611.448521208177
 -424215.441055941 678263.220402978 -513.242918299455
 -362921.133336318 712943.281507588 -358.233270366329
 -316252.359628646 734836.301624438 -234.188454324522
 -316298.888855081 -734813.890504747 -1886.59225016154
 -360421.095267124 -714207.896253842 -1927.43744624814
 -416398.238657291 -683087.210291718 -2090.44946937458
 -475780.071434701 -643138.841429702 -2398.80596379374
 -535478.056898283 -594353.347940580 -2710.78812556347
 -593313.506835632 -536628.120957383 -3056.53466410678
 -648603.858446375 -468297.885575682 -3182.00782869168
 -699639.402897883 -387937.402521330 -3045.92148592234
 -744506.976783937 -292752.247959262 -2341.54539570908
 -778992.087796904 -182125.687365176 -1249.46051684408
 -797939.533118619 -57380.2907206891 -61.0184331614436
 -796588.316189110 73803.0513421907 405.121685368116
 -774232.226542602 201406.158232526 137.145542514446
 -734595.396714074 316811.296990108 -453.018695790816
 -682608.178198842 417187.545525833 -791.779129217201
 -622783.526877925 502135.353358041 -874.961420575870
 -558212.237725599 573060.728618371 -706.377210041957
 -492224.422131615 630646.390127352 -498.875272824986
 -429166.060061030 675141.769991181 -288.625830210799
 -378955.349984249 704551.496768298 -176.408236262286
 -375104.496644088 -706606.694811735 -1896.16576874817
 -423202.377913726 -678893.397927887 -1871.25040961809
 -481437.699876463 -638916.136338215 -1977.84334781090
 -540180.181541847 -590085.423097783 -2136.56662137064
 -595412.248703933 -534301.955590702 -2382.08842798346
 -646021.925470112 -471856.994988940 -2578.38939998545
 -691129.839600389 -402904.266006791 -2774.39136909089
 -730534.663068061 -326054.316947829 -2772.80646985412
 -762890.233540424 -240814.331727079 -2636.13419198459
 -786508.186752397 -146286.991430582 -2233.45240471093
 -798761.379485608 -44462.6778778584 -1824.53231781815
 -797630.679270582 61507.2540064998 -1468.73786980954
 -782592.915941317 165971.384974840 -1351.77216974332
 -754783.618527338 265141.761624201 -1239.13098312193
 -716276.845670728 356295.122935098 -1125.04606854955
 -668761.038264087 439042.011402475 -886.523326924985
 -613999.241363195 512839.656988761 -646.393897546346
 -553898.438436542 577231.643353109 -387.052230573099
 -492800.304248620 630196.650560187 -204.340866146869
 -441434.398702798 667184.879459744 -90.8965709886746
 -435200.537238113 -671264.953696681 -1963.24380869458
 -485290.714695321 -635994.772291877 -1889.93330759063
 -542894.368732015 -587590.119117547 -1885.81931615886
 -597325.214879302 -532164.167195756 -1971.50253441898
 -645709.116904073 -472287.489386605 -2064.87671766166
 -687341.518072922 -409336.972310655 -2209.21541652804
 -722748.476714705 -342971.429147399 -2288.71037139132
 -751987.469363885 -272963.866729417 -2360.80067477961
 -775070.155470930 -198143.925394796 -2288.87033493337
 -791139.864825718 -118713.945033424 -2171.06843420678
 -799236.590255253 -34887.7260757012 -1928.56589822823
 -798365.836570337 51078.5697466221 -1723.57476924431
 -788140.371910581 137231.798465514 -1479.07219949497
 -768838.352346636 221101.682173715 -1278.31954644740
 -740870.256907930 301844.718215489 -1014.15708365372
 -704704.896589458 378669.269007491 -770.345489774443
 -660468.710231348 451420.904429680 -499.849207630816
 -608980.134741658 518790.049140468 -283.553985389180
 -553081.483808569 578014.586288796 -101.516026154924
 -503275.701724099 621862.981726033 -3.59499425785868
 -493819.317216130 -629394.930854821 -2122.01754255807
 -543781.648269089 -586768.804389296 -1972.10580596438
 -597428.871417750 -532048.073485291 -1895.01902444184
 -645199.098871905 -472984.819132222 -1866.46332440931
 -685296.465820817 -412753.130796652 -1899.19747762472
 -718350.004455434 -352093.106498318 -1927.55161840297
 -745188.998467021 -291014.476354058 -1982.70423704330
 -766662.918646650 -228525.813459125 -1980.34215349606
 -782973.463861519 -164160.563289000 -1965.79483435342
 -794071.413874167 -97196.4007758248 -1857.24099291965
 -799504.059712166 -28111.6273517917 -1730.58123155850
 -798860.507357388 42656.1631955577 -1530.20460385110
 -791865.601114116 113785.224185512 -1338.85370060677
 -778391.142452897 184678.163352077 -1097.87602957529
 -758377.305531699 254682.356341185 -871.678255862365
 -731473.306619072 323954.347914108 -618.200052654386
 -697243.396864290 392239.071089301 -395.777904876215
 -655364.450832040 458799.959648818 -183.335381088688
 -607374.160578616 520669.404228930 -23.6920274735693
 -561785.840767395 569558.304943310 79.8960253165676
 -542779.493086994 -587694.544817068 -2354.54379564385
 -590210.157382992 -540043.885317008 -2138.23610811921
 -638100.098987449 -482518.745672600 -1980.84495843503
 -678888.415875041 -423210.248234130 -1898.57322286758
 -711961.007122014 -364839.783638999 -1859.19661589648
 -738325.001086996 -308014.202250727 -1855.79679285164
 -759219.922162365 -252154.100454377 -1849.16624898051
 -775494.196019837 -196482.476302419 -1840.77310281999
 -787640.006667527 -140071.465762289 -1790.07708891526
 -795732.670564967 -82502.0600371422 -1710.87263493470
 -799651.834274106 -23547.0012331792 -1575.65065353567
 -799168.458751323 36438.5845481644 -1415.65997444226
 -794078.114843967 97151.7916236478 -1215.28192860581
 -784199.591290660 158208.687249220 -1006.13042908153
 -769242.262182733 219694.651695559 -775.943527748116
 -748729.708724480 281786.297627013 -552.940337077826
 -721924.960315588 344708.922915698 -331.866896887213
 -688245.674998984 407820.882648719 -136.091195771679
 -648476.509803923 468485.021451695 30.1318532174547
 -609213.978454867 518515.486184904 137.991402135434
# End: Data Text
# End: Segment
