# OOMMF OVF 2.0
#
# Segment count: 1
#
# Begin: Segment
# Begin: Header
#
# Title: Oxs_TimeDriver::Magnetization
# Desc: Oxs vector field output
# Desc:  MIF source file: C:/Users/Victor H. González/Documents/GitHub/Intro-to-magnetism-in-python/vortex_dynamics/drive-2/vortex_dynamics.mif
# Desc:  Iteration: 2126, State id: 13403
# Desc:  Stage: 303, Stage iteration: 6
# Desc:  Stage simulation time: 1e-11 s
# Desc:  Total simulation time: 3.04e-09 s
# meshunit: m
# meshtype: rectangular
# xbase: -4.7499999999999995e-08
# ybase: -4.7499999999999995e-08
# zbase: 2.5000000000000001e-09
# xnodes: 20
# ynodes: 20
# znodes: 1
# xstepsize: 5.0000000000000001e-09
# ystepsize: 5.0000000000000001e-09
# zstepsize: 5.0000000000000001e-09
# xmin: -4.9999999999999998e-08
# ymin: -4.9999999999999998e-08
# zmin: 0
# xmax: 4.9999999999999998e-08
# ymax: 4.9999999999999998e-08
# zmax: 5.0000000000000001e-09
# valuedim: 3
# valuelabels: Magnetization_x Magnetization_y Magnetization_z
# valueunits: A/m A/m A/m
#
# End: Header
#
# Begin: Data Text
 573281.381067471 -557985.922450195 410.449483277749
 617564.556827029 -508540.978401831 302.385753524546
 662408.733298278 -448569.557852068 147.711106600368
 700618.737916130 -386177.917647658 1.45912336789096
 731439.761663816 -324030.619335315 -181.081066768878
 755664.541338839 -262623.298958617 -322.191333685526
 774189.713549081 -201568.937919300 -500.700386879456
 787600.004259018 -140306.309911023 -610.483699143235
 796135.830982810 -78531.2733289109 -760.088580363278
 799832.280821235 -16359.5235195795 -829.787028767352
 798691.386316671 45729.3832054453 -944.952487028440
 792787.194924342 107179.863493665 -969.755367235742
 782228.620516599 167682.229683304 -1027.17726478881
 767007.605385787 227372.721051634 -989.445267264586
 746822.756537794 286800.976422396 -985.007842820599
 720972.693764349 346695.160174694 -916.928362325490
 688421.542615077 407522.972025965 -898.295386761826
 648262.318565490 468780.565204495 -864.878402000306
 601221.086781150 527761.693104998 -894.483448303050
 554765.964208264 576397.276911702 -950.854800299746
 524226.602994845 -604306.522510370 309.134126476904
 572899.719167357 -558377.893202717 200.400747064631
 624883.859830686 -499519.922850688 91.6424905250127
 670903.027778631 -435762.683142242 -106.292706561123
 709303.942890206 -369983.602314902 -224.985545590153
 740407.323515590 -302979.844786833 -457.096737371223
 764833.945084659 -234582.061097874 -541.347678749463
 782919.897042138 -164425.871623600 -753.363357396027
 794639.091113460 -92455.9807743187 -778.776882154544
 799767.383028459 -19266.4541498591 -967.878247565147
 798175.247482475 53993.8032763344 -971.346512026473
 790009.666113072 126029.459154465 -1141.43468749917
 775622.737761174 195980.052143229 -1089.87604689936
 755300.442029167 263666.228915463 -1167.04757556777
 728997.625992724 329486.546835646 -1037.66627340099
 696234.431642903 394026.063675812 -1037.94943426698
 656263.062831881 457512.806193140 -908.037331864020
 608695.339153461 519123.460560268 -903.763676900915
 555259.306435183 575922.184592517 -860.180970140747
 505517.253877945 620041.511941201 -910.769657771144
 464515.808320725 -651325.599709382 164.266119385115
 515219.410597086 -612004.043045175 101.194617123755
 573092.466995368 -558180.095103932 -75.5177446717707
 627527.495457165 -496194.730267459 -179.164902632688
 675431.466386705 -428709.853181875 -442.718284702812
 716111.370938053 -356628.990311541 -517.380511115129
 749418.454660804 -279948.927585318 -760.103705602083
 774997.691383054 -198439.070139370 -716.793665444122
 792057.657492908 -112444.984106371 -890.368556080211
 799656.810135936 -23415.8867786492 -825.984012280698
 797269.089950874 66036.1830245682 -1104.87123742524
 785222.909614455 153047.995237230 -1137.26447026939
 764514.859054931 235616.363314398 -1399.86524948308
 736206.232310279 313047.437570445 -1298.20571630531
 700943.430397240 385585.838910107 -1366.82659415812
 658871.755833853 453747.388999800 -1147.31873469740
 609963.548544633 517632.314873402 -1120.73442154983
 554859.514616760 576307.234411075 -943.718555326602
 496677.422846320 627144.846350744 -937.726206922335
 446040.864267808 664113.475036641 -916.339447806010
 402207.308542005 -691541.235300965 28.8758195513601
 452355.630090306 -659829.051224098 -84.1802242620989
 513000.110080228 -613865.505539656 -167.827939719105
 573837.529713539 -557413.944179279 -429.332927912150
 630898.326831642 -491901.463075133 -501.822258675177
 682353.059402971 -417604.780189061 -741.543426014368
 726926.221398682 -334032.819311628 -586.741646725783
 762943.689734323 -240658.720377620 -553.715434350185
 788015.332946688 -137955.845331849 -140.640310492222
 799484.838112983 -28704.5184243567 -210.355611916805
 795810.601383439 81764.2368893652 -310.308927739791
 777741.912028621 187394.109978743 -982.761079944873
 747803.920749655 284231.765228270 -1264.81092069306
 708752.806292398 371034.618511568 -1664.76383453085
 662600.011880543 448284.404147873 -1522.25283455024
 610555.324052169 516933.089407787 -1541.86473900146
 553583.226116129 577532.747765396 -1239.76667529811
 493317.422246179 629790.873121736 -1173.47388018449
 433613.402879371 672293.410470549 -993.519627849405
 384481.888690728 701550.191653781 -1002.92539783738
 339982.897715225 -724162.695602239 -139.854414067940
 387187.930593770 -700061.047028593 -191.926406025036
 447116.213455431 -663390.473758754 -413.511082461401
 511048.650778967 -615490.893745848 -486.058572243794
 575176.831065307 -556031.570754975 -710.865266155842
 637197.187245555 -483714.321464579 -446.963549254757
 694824.291058365 -396508.766601764 -50.6279511847366
 744700.611587730 -292266.290213259 1189.41407423309
 781604.534928248 -170554.384770854 2356.44117953048
 799205.499570580 -35493.9046234584 3279.05332694291
 793410.170979382 102441.328853200 2464.69658540667
 765987.046708541 230787.178034929 1059.58926021950
 722976.074743701 342498.441997304 -642.322044831127
 670418.045675455 436506.279492332 -1382.74960413862
 612407.778702599 514735.978833392 -1893.32484791852
 551333.638371854 579679.556821854 -1682.43944073214
 488839.128085633 633272.193981686 -1623.32439795691
 426890.337374428 676581.861014260 -1274.83443208011
 369013.435518745 709808.183578219 -1194.54260803746
 323528.128487537 731661.368587741 -1091.69302718223
 278340.597725981 -750017.626435294 -267.757188513686
 320492.523723700 -732996.848359347 -403.153171094491
 376274.299747442 -705986.846461881 -473.257202526230
 439214.789635095 -668647.809061820 -689.929436148905
 506777.448239939 -619012.481782682 -406.635783123305
 577320.883582231 -553805.499442438 257.229748154936
 648665.101595830 -468217.346047729 2470.39100036059
 716213.406243833 -356373.079846757 6048.52685728168
 770797.805156591 -213892.219295874 10993.7295977200
 798623.442642244 -44792.4693989768 13936.6978654059
 789110.614162678 130969.664412852 12303.8863529025
 746686.372814432 287069.214141004 7122.28514545306
 685420.392723021 412543.470010114 2602.03601681772
 616999.223965762 509226.592377223 -485.017039099008
 547743.625578161 583073.286880871 -1569.31973415956
 480409.070174065 639689.736062813 -2041.29135099068
 416297.256625692 683149.770764261 -1727.66624646612
 356624.663051679 716111.926620061 -1599.45483819427
 303721.762692302 740102.317267674 -1284.85100254678
 263693.567046135 755290.768533803 -1248.06494387721
 216841.453739813 -770051.688393245 -425.608644640219
 252057.806258056 -759254.000883367 -473.758352770292
 300316.144688899 -741491.578209352 -672.817805756779
 357603.207457460 -715625.397514599 -486.259405655755
 423265.854074720 -678856.394488860 111.516737850209
 497688.196153601 -626338.102914880 2653.34625797277
 580792.772146982 -550102.161236697 8207.80266197032
 669222.876909097 -437921.116039416 19126.8697989019
 750383.668190523 -275250.742150950 34079.0178597628
 796534.595291799 -58947.2921838831 45363.5894470219
 779965.638818608 173439.998320596 39650.5894638733
 712499.040084696 362987.400187686 24192.2546153160
 626649.680610881 497191.003263774 10549.1262123302
 541899.483082609 588503.890664149 2849.72068111867
 464834.287730708 651097.795087051 -863.818653827686
 396339.518860967 694918.501755531 -1806.01963046182
 335746.897770022 726133.428602629 -2065.06745597272
 282609.961239118 748417.542922388 -1670.70477334221
 237590.709760310 763903.341516925 -1529.52766174456
 204587.214670548 773396.552648252 -1357.91941835575
 154852.982273563 -784869.597874373 -517.893332670797
 181394.244147410 -779163.467932054 -646.861874349030
 218829.720559129 -769488.921341651 -594.417762998615
 265239.423364031 -754750.252947265 -322.443105766038
 321812.573033435 -732416.632329668 1595.15656524920
 391520.345796723 -697614.169889898 6803.58699833941
 478661.534084346 -640685.706049062 20123.6639913153
 586191.787770813 -542353.598945259 47241.5247550718
 704551.492170015 -367864.156563252 91011.8519590342
 785058.587316958 -83670.8740520878 129159.588553318
 754174.221661916 242763.311827806 110847.723526640
 645427.266663100 468403.686578016 63416.3216208908
 531123.593301053 597598.821998829 27988.8653680401
 435550.775564179 670978.685319060 9117.33255663985
 359163.934493203 714842.296971733 1326.12953273450
 297527.813344482 742613.435679542 -1576.52614226032
 246804.663619950 760975.448560312 -1955.68501441754
 204609.719532474 773389.305127568 -1960.96586928334
 170205.771748104 781682.461059064 -1589.13066706711
 145599.265659371 786637.494757060 -1518.44716364211
 91991.0991574585 -794693.167720712 -637.850939150956
 108347.661728868 -792628.764141085 -653.034503248221
 131891.156445701 -789052.764904769 -676.052923718700
 162075.853427963 -783410.083756955 241.668199392415
 200784.919448391 -774386.727057858 3257.77204874026
 252338.472169647 -759050.377175910 12954.5502506864
 324849.663937694 -730085.845961966 38044.0976442958
 431523.827393795 -666632.139369211 96895.7024405086
 581439.055076015 -507924.080162508 209622.885256787
 715101.332438472 -131142.727625600 333813.824362681
 659361.087468144 361573.513683657 272960.712439137
 500435.288268526 608519.429550622 138811.476884955
 373303.275560402 705317.872968379 56314.8517465546
 287071.089895581 746480.577293689 18892.7782351946
 227374.033669504 766997.282971334 4026.99980767127
 183590.805545256 778648.779256961 -703.335544452216
 149742.752850370 785857.975796982 -2085.62821785813
 122759.950114863 790522.791543294 -1926.31731414647
 101350.580100684 793552.028906811 -1799.25849670172
 86309.7904753024 795328.910518808 -1595.04265638249
 28352.9142286113 -799497.114763525 -689.738749715931
 33448.2869308826 -799300.062012651 -789.283195216381
 40832.3849395171 -798957.066984735 -566.970281560981
 50421.3004285405 -798409.375873461 401.223685958431
 63051.1345767295 -797497.468424274 4726.76268294403
 80742.8825344692 -795718.309278608 17690.6528658291
 108152.120738584 -790770.787421663 54632.2298672645
 156053.896721773 -770043.165408778 150601.144501564
 244477.458514118 -664365.637737616 372624.572018500
 355091.265377342 -203982.891699013 687241.713770945
 304420.834024473 519672.060225392 526563.296891211
 193079.575151839 741499.249367206 229998.132268625
 128542.199370993 785051.929081577 84678.0468962467
 93414.4207942034 794066.659674509 27053.3913040735
 72057.8697633438 796721.791197420 6484.66162149155
 57438.4851577757 797935.260093231 -375.663050715831
 46555.0789096756 798642.029822369 -1879.58211327021
 38025.6986951096 799092.893177465 -2143.43463091833
 31336.2735376550 799384.031999277 -1790.90629370128
 26649.5910182877 799554.176542723 -1708.23641349987
 -35523.9104835483 -799210.516166270 -776.294532490421
 -42039.9778687427 -798894.245992173 -789.924928671970
 -51602.4962189800 -798333.633072142 -769.863497249885
 -64200.2644324355 -797419.709499381 364.621348927802
 -81004.7110409900 -795876.924636192 4261.17598814867
 -104713.425170693 -792935.195168521 16996.3187803187
 -141271.482407899 -785695.235360479 52205.0322298169
 -203834.508287065 -760201.456662677 143336.103335183
 -315248.671866307 -647000.800447523 349296.777979407
 -448991.890596080 -194531.342442757 632901.128918551
 -387835.975162871 500537.613016689 488922.646565916
 -250513.312270830 727968.614754888 217496.612173492
 -167647.421655718 778059.057163160 80736.8910632860
 -121212.021994300 790337.994055694 25951.8954235451
 -92630.3485320464 794597.598200603 5854.52514435779
 -73106.5830747082 796652.542310591 -392.862841870575
 -58729.9921042375 797838.414432850 -2156.96145354675
 -47629.1493780965 798578.222129737 -2070.57229469284
 -39047.6646812424 799044.137596334 -1935.47303599504
 -33111.3375945125 799312.626082797 -1721.94869964700
 -98933.0014164178 -793858.696919492 -794.075578683429
 -116579.666190308 -791459.617727343 -924.628489136563
 -142043.297533347 -787288.377425053 -844.036302625937
 -174737.035767107 -780683.590970744 -314.833845636110
 -216642.942356068 -770103.321279172 2590.38261535824
 -272151.255206439 -752203.915892612 11088.8775526558
 -349186.845028737 -718968.947433713 33944.0699524643
 -459696.390829200 -649044.154088594 86144.7288116328
 -609030.948880910 -484988.104424762 184032.176185831
 -736303.190429728 -122291.104840566 287927.937928708
 -683710.880812806 340840.954594912 237417.091063400
 -529032.672678472 587423.802490421 122709.850893747
 -399602.801176559 691231.072107992 50171.7674024407
 -308977.528628050 737744.895729903 16289.7399419731
 -245042.333092741 761540.698117261 3165.45471292447
 -197745.753500974 775173.975977227 -1387.06163884872
 -161087.340302816 783610.879692763 -2204.09194436347
 -131895.855222323 789049.039010167 -2257.74496006232
 -108785.680192703 792566.854496302 -1859.28449902135
 -92594.3499918361 794621.402270297 -1764.48394041273
 -161388.804739567 -783551.508219216 -829.259987168057
 -189004.877515620 -777352.141915314 -896.512676085185
 -227940.126347840 -766839.026182828 -1098.50967408367
 -276136.569766791 -750831.524542321 -785.233013122672
 -334638.159108885 -726647.828949136 484.924450655203
 -406141.880743316 -689218.847074101 5114.05359073721
 -494244.565048071 -628853.696767363 16289.1983370514
 -600547.545014385 -527038.830105861 39657.5054414758
 -714036.928516726 -352615.660683439 76246.0527186957
 -788758.229621478 -79167.5282250992 107670.598025275
 -760363.083350099 230832.385929907 92543.9953980672
 -657825.831237381 452143.306944121 53212.8343774553
 -546432.259996963 583857.398957000 22854.3850885834
 -450749.956221376 660890.668207980 6928.32173298258
 -372890.167191090 707780.278612561 -20.4774535691189
 -309365.798163081 737759.184428485 -2046.63585781398
 -256792.358410016 757661.718850068 -2530.70175698936
 -212937.422134358 771137.565487442 -2123.52275146961
 -177156.991181053 780135.715066951 -1914.82444436850
 -151566.533121046 785509.174128079 -1709.79480937096
 -222875.853628609 -768326.581647853 -786.004227385041
 -258909.311971583 -756944.566886556 -943.840730510208
 -308218.357931802 -738241.356786431 -1069.09492233517
 -366569.438646406 -711073.302991380 -1266.65835532367
 -433115.229730594 -672614.802937655 -724.323515402130
 -507895.827450548 -618094.590247553 951.821953763591
 -590359.715457586 -539854.918766647 5663.30718689302
 -676575.293328529 -426661.166643726 14356.9263991119
 -754021.143074678 -265960.282056812 26781.4145372394
 -797193.863148717 -56664.5063543801 35652.1847526872
 -781797.676782421 166783.514024428 31235.4290393727
 -718150.621670805 352025.673943067 18374.1524638671
 -635313.517530251 486129.267162499 7420.91984804377
 -551910.542818590 579132.155292090 836.320768358338
 -474906.325375826 643786.352384454 -1764.82337610157
 -405763.960517600 689455.213171081 -2667.84112947724
 -344182.359956101 722172.259029206 -2394.03084827801
 -289973.211066442 745594.286567892 -2167.18737840763
 -243938.265389300 761899.605220890 -1764.72182245777
 -210158.334423454 771900.664124451 -1684.99157030221
 -283850.307341966 -747949.487448110 -753.158669319169
 -326567.202176516 -730310.327717948 -829.271431022541
 -382970.603232287 -702376.163388520 -1114.52389863930
 -446398.365821506 -663872.660373272 -1260.87303183317
 -514113.412971726 -612931.743310254 -1441.05697839481
 -584290.281411734 -546446.803189679 -870.822356023326
 -654518.840305390 -460005.295143139 464.893064202085
 -720155.503085157 -348373.637461140 3443.84933735983
 -772428.647670645 -208097.114123359 7040.97658200439
 -798758.453016969 -43511.4225127383 9575.48144257814
 -789814.752314899 126998.584360461 8001.03719497301
 -749482.647384755 279746.998224459 4168.72325107894
 -690405.742019137 404153.185273769 337.964598379779
 -623472.557109822 501277.478465496 -1691.18722029759
 -554927.883835316 576235.937415555 -2681.07681245906
 -487672.926674849 634167.619941173 -2558.59464032583
 -423237.517566968 678869.845666981 -2395.07157292822
 -362993.617671821 712903.886416090 -1918.92218643795
 -309439.835713207 737728.925725957 -1737.87830678154
 -268845.537042418 753471.657522354 -1593.27426723983
 -345001.546231675 -721784.932491646 -666.577664200733
 -392526.630709632 -697081.216885597 -788.193530217120
 -452718.629269479 -659579.393858252 -930.542823040247
 -516693.103498849 -610759.045442071 -1274.83623175317
 -580555.652548894 -550411.771946281 -1419.71704308479
 -641904.908635650 -477446.819499364 -1619.51208675828
 -698450.212555643 -390084.277542076 -1247.79623885695
 -746912.869360703 -286567.081241134 -688.136832148080
 -782429.089000914 -166747.061470098 371.720709240302
 -799245.861230613 -34720.0162564033 757.480620642296
 -793736.274216460 99912.8352081410 390.325049103611
 -767483.210282533 225762.333981350 -943.657623511942
 -725909.609130605 336231.611642410 -1882.20726822254
 -674601.073235690 430007.659575057 -2608.58123088572
 -617442.394008174 508682.989699225 -2550.70031823711
 -556826.019473194 574402.834878578 -2483.40916718234
 -494433.457076350 628912.852419915 -2044.64778812281
 -432330.566287389 673117.274364368 -1848.35221489687
 -374123.463760738 707127.397836849 -1573.87806279228
 -328286.142410744 729538.074151381 -1551.47174180168
 -406792.699276905 -688853.635398000 -607.300559468471
 -457036.718438439 -656595.014599658 -651.768285457865
 -517633.557838255 -609962.916328327 -860.525392858196
 -578218.758907109 -552867.087731887 -1024.76864912827
 -634786.563935165 -486871.793660375 -1369.22800010381
 -685529.188079282 -412368.132676077 -1501.81377230464
 -729194.997857356 -329046.533069823 -1741.88821095918
 -764238.583060053 -236509.574417381 -1615.35484358920
 -788464.793592315 -135353.522143135 -1641.13036540229
 -799501.874070612 -28187.0418704111 -1498.00806888446
 -795983.342030504 80044.5798457188 -1839.68673186949
 -778584.249269993 183854.223484514 -2047.26539287024
 -749576.575968469 279515.638209148 -2442.28497880509
 -711457.102188388 365818.480784541 -2372.94378183040
 -666099.698814162 443063.777391884 -2383.35958650929
 -614635.454045720 512073.312947134 -2044.69982130725
 -558030.268057311 573235.208149834 -1901.59651416054
 -497910.290189294 626165.115201226 -1609.79149238814
 -438172.357212372 669329.973267003 -1540.21470805731
 -388893.741746201 699113.310401646 -1495.61020753988
 -468735.209411976 -648295.469498308 -536.363199193813
 -519311.879168196 -608534.972262310 -599.740365933528
 -576892.375727984 -554251.489092870 -688.233432432270
 -630880.506943173 -491923.710497435 -921.417148396646
 -678223.457790640 -424277.952402814 -1077.22206723423
 -718248.145147581 -352303.410619989 -1381.61412201427
 -750863.257836863 -276047.318904139 -1498.58481568058
 -775776.384986578 -195366.191817419 -1746.88062477894
 -792318.821064949 -110579.410031781 -1754.95392355658
 -799665.014736821 -23065.9471415809 -1956.09008541612
 -797366.600845959 64827.9443097996 -1959.97243022820
 -785720.149933754 150463.101023276 -2168.22935541780
 -765606.847858729 232038.302182841 -2093.04369889866
 -737970.317626867 308861.161461296 -2143.18512515799
 -703357.145884200 381162.765124605 -1916.19837111220
 -661870.926130683 449358.959831391 -1844.54931111687
 -613443.225933538 513502.497168783 -1610.57681555862
 -558703.069383214 572580.534631962 -1552.93990572633
 -500735.883700911 623908.200985915 -1459.97150197460
 -450165.984088669 661323.133174902 -1516.67307379431
 -528141.436572134 -600887.978090738 -510.648164056745
 -576472.191793520 -554688.681819709 -527.588751145813
 -627974.362629310 -495628.681758700 -640.076905561429
 -673460.365907879 -431799.225651303 -751.184505556730
 -711308.507126805 -366113.741192321 -967.573871525921
 -741867.126742374 -299385.926759002 -1110.45831436765
 -765773.671014503 -231492.659651782 -1353.99716204727
 -783409.552540576 -162072.027202549 -1459.78992682187
 -794797.061153372 -91076.1601470641 -1662.71910670377
 -799772.417960772 -19004.8988877035 -1700.96662186262
 -798234.076474690 53093.6724733890 -1849.62101172063
 -790315.540660513 124088.855859896 -1817.15212952359
 -776320.064874554 193193.243173921 -1878.20795182242
 -756470.376578142 260287.336127971 -1752.71535863120
 -730679.064422668 325737.810310159 -1727.35310718413
 -698431.554234088 390116.506280848 -1573.39676534431
 -658970.024952639 453603.497516519 -1540.53714670800
 -611882.825257821 515361.300944611 -1462.06811954646
 -558868.675781610 572419.014532740 -1508.32074697343
 -509411.694008140 616844.563755923 -1584.35239839441
 -576968.835104473 -554172.084972196 -513.376818617181
 -620714.493676565 -504691.227014452 -531.709030430406
 -664976.092981762 -444754.356090053 -598.750060108018
 -702636.312425436 -382494.025949981 -729.776513069659
 -732956.090378816 -320584.805599540 -867.176629748953
 -756727.209277016 -259543.494782953 -1051.21628175668
 -774854.075892280 -198996.785787342 -1200.13308718105
 -787936.254494337 -138400.004556229 -1377.53122350594
 -796242.864638823 -77427.9641817904 -1486.90094717771
 -799835.190178741 -16157.4433638789 -1614.17956887915
 -798730.663496389 45017.5401051373 -1657.79175434892
 -792995.798441036 105615.937501566 -1713.88463158260
 -782713.396578833 165399.253287085 -1681.01995879838
 -767845.370137751 224523.306491188 -1665.05263694092
 -748064.597630976 283543.372151009 -1585.52213505738
 -722659.500591663 343163.003223876 -1549.00709449162
 -690590.551472950 403834.673902408 -1498.78965287770
 -650952.975682326 465035.383919769 -1521.56265697095
 -604456.899946517 524050.887982479 -1588.36765991784
 -558496.729395417 572781.286417630 -1732.39267741016
# End: Data Text
# End: Segment
