# OOMMF OVF 2.0
#
# Segment count: 1
#
# Begin: Segment
# Begin: Header
#
# Title: Oxs_TimeDriver::Magnetization
# Desc: Oxs vector field output
# Desc:  MIF source file: C:/Users/Victor H. González/Documents/GitHub/Intro-to-magnetism-in-python/vortex_dynamics/drive-2/vortex_dynamics.mif
# Desc:  Iteration: 1566, State id: 9883
# Desc:  Stage: 223, Stage iteration: 6
# Desc:  Stage simulation time: 1e-11 s
# Desc:  Total simulation time: 2.24e-09 s
# meshunit: m
# meshtype: rectangular
# xbase: -4.7499999999999995e-08
# ybase: -4.7499999999999995e-08
# zbase: 2.5000000000000001e-09
# xnodes: 20
# ynodes: 20
# znodes: 1
# xstepsize: 5.0000000000000001e-09
# ystepsize: 5.0000000000000001e-09
# zstepsize: 5.0000000000000001e-09
# xmin: -4.9999999999999998e-08
# ymin: -4.9999999999999998e-08
# zmin: 0
# xmax: 4.9999999999999998e-08
# ymax: 4.9999999999999998e-08
# zmax: 5.0000000000000001e-09
# valuedim: 3
# valuelabels: Magnetization_x Magnetization_y Magnetization_z
# valueunits: A/m A/m A/m
#
# End: Header
#
# Begin: Data Text
 553730.451590614 -577390.928906106 -1517.29964056720
 600042.712625653 -529099.970874275 -1401.37278778632
 646804.658897908 -470788.566658407 -1363.35310356248
 686607.613876163 -410570.473965232 -1367.65318967611
 718797.304840451 -351181.337650622 -1450.04828350267
 744342.290721574 -293176.108561884 -1524.33981428784
 764374.761450854 -236068.817227715 -1654.56630512361
 779691.675705785 -179103.012431911 -1732.56252964586
 790708.153556835 -121561.645757469 -1839.07027480712
 797504.585543892 -63110.7197024648 -1863.62418475396
 799988.966358803 -3748.33178543620 -1898.34480551959
 798022.637512706 56182.2901401977 -1849.40311077596
 791491.624883410 116351.808582893 -1806.75922810746
 780264.779434238 176589.891191937 -1698.32366162781
 764054.828312870 237102.590609553 -1606.50491093256
 742312.125656806 298279.215692598 -1489.15703759982
 714214.953292556 360409.477234477 -1417.46706593182
 679064.012662421 422930.458863537 -1376.10765939565
 637599.319194180 483182.260174576 -1418.31438893287
 596588.161189193 532991.768867067 -1529.78719214087
 504822.903798405 -620606.108550565 -1376.16505924169
 554319.828591174 -576825.605579272 -1322.26274210812
 607334.364886274 -520714.214931003 -1294.44852133416
 654383.514796676 -460195.899862798 -1396.17757415936
 693780.507051145 -398329.635814164 -1452.33192220642
 726033.456296336 -335965.338713620 -1646.66980260860
 751984.661909455 -272976.372298874 -1722.91017435879
 772305.820221705 -208662.467613917 -1922.15008540630
 787198.238718470 -142531.181756443 -1948.12362286062
 796536.324447937 -74334.3297443801 -2071.53479947256
 799984.430370921 -4566.25856402871 -2015.05504641537
 797271.544480500 65984.0395003178 -2047.16704212980
 788304.678883840 136279.259449785 -1922.67877268770
 773085.110143359 205756.965230223 -1866.47632696003
 751536.422956515 274208.215848254 -1690.95565984971
 723278.988951009 341855.214320988 -1586.37434357563
 687736.448118801 408676.545443283 -1434.96811076694
 644554.892543737 473864.004863425 -1376.73262738188
 595249.833012280 534486.488473079 -1352.75222058813
 548590.799518057 582276.646836868 -1428.71710011615
 446073.347850692 -664091.015543056 -1300.54306678278
 496373.132982005 -627385.157392268 -1255.84135464156
 553993.021520197 -577139.391811982 -1361.80975876282
 608320.169514677 -519561.869493354 -1426.57989854022
 656349.657914868 -457386.358217382 -1686.97115414602
 697498.364765265 -391781.584513112 -1794.76632955109
 732034.014970953 -322679.097234642 -2097.88782921611
 760032.783844846 -249690.900998270 -2149.75341041790
 781234.030342654 -172243.547769089 -2355.86215445449
 794846.760058637 -90628.0049871441 -2278.75763024841
 799974.885765982 -5879.48321699230 -2369.35029178085
 796005.986884823 79808.5704486779 -2249.65029682108
 782944.936145819 164292.467099928 -2283.02821666305
 761287.489187576 245839.238102461 -2104.23755258467
 731530.119003291 323820.387260860 -2010.41917476361
 693971.894108541 397994.855874047 -1762.06844321917
 648693.128571255 468182.245385003 -1615.56513159304
 596362.711967494 533244.287265330 -1430.34040184997
 539900.547140368 590343.551126624 -1375.07844807379
 489810.428034914 632521.805612781 -1382.03205505939
 385644.690397222 -700911.262243297 -1255.08124852820
 434453.408556304 -671750.343848596 -1308.17930878190
 493494.750329395 -629651.529531752 -1372.13543559684
 552802.225023494 -578279.262764094 -1671.60584136287
 608478.839796418 -519374.778758355 -1827.76084743436
 659078.627402657 -453442.796996065 -2234.44700445991
 703796.170371824 -380349.152851638 -2339.33644343659
 741937.487553117 -299202.201139641 -2609.09880247626
 772070.881753117 -209524.568788479 -2451.24926663432
 792175.036160475 -111591.705900784 -2450.15475103082
 799957.461608047 -7947.61169705802 -2212.48410719603
 794071.782943138 97182.8027652290 -2346.56774903553
 774892.295412023 198837.836459172 -2333.51737094896
 744083.998104334 293824.778025459 -2450.22108374033
 703639.851610861 380638.745632848 -2259.32469965876
 655106.964396263 459162.727354537 -2110.68895332274
 599881.474347457 529281.589410962 -1793.27781649768
 539812.253514260 590423.715025098 -1602.40189064131
 479030.148143708 640724.668604970 -1419.93326275277
 428153.645077568 675782.871059382 -1402.63663572349
 326253.958684800 -730449.671617067 -1277.37113451711
 371532.107182435 -708492.917114127 -1296.04463513821
 428868.682044663 -675328.962187672 -1564.09456135739
 489762.771777028 -632557.803085513 -1747.32278466200
 550706.754423718 -580273.301998602 -2228.36705554796
 609651.407919789 -517995.549358486 -2402.42923289841
 665286.593373374 -444281.785244479 -2728.36537713187
 715724.004314066 -357397.922055352 -2423.83150318953
 758109.540332369 -255471.777612146 -2023.78376645971
 787880.601360344 -138719.043989209 -1088.50116352320
 799924.249658798 -10985.7720955052 -712.474051991729
 791126.741602940 118818.360450106 -822.156106690388
 762826.687991394 241024.453486211 -1630.00299198117
 719565.386226124 349601.354638806 -2132.55245232447
 666066.872720182 443112.715014666 -2458.22234331673
 606037.152913847 522220.020529249 -2284.61080024322
 542145.822813215 588280.195988282 -2077.93507403235
 477210.442217177 642080.379479860 -1726.30411173704
 415440.789708924 683671.398337461 -1539.26648994263
 366324.355947463 711199.259513043 -1442.04985220942
 268402.063250969 -753630.351996879 -1274.75161613132
 308540.422771601 -738106.227375821 -1415.84778686653
 361208.836547727 -713810.697160820 -1570.03777678399
 420136.224062413 -680794.634750968 -2053.90478670338
 482642.526261273 -638005.469401845 -2283.16829587358
 547441.486021661 -583352.926983375 -2679.91834273931
 613100.964776521 -513908.601725910 -2270.69641739115
 677556.403374312 -425341.791228574 -1296.48792320213
 736151.121367930 -313177.435090282 1191.91401177835
 780649.431731530 -174842.298239525 4078.66198157427
 799821.449039772 -15756.7355338302 6113.50482422163
 786344.987630436 147095.321002290 4952.47087045010
 744185.418779126 293569.609411202 2224.16426786044
 684119.030625786 414705.873282708 -436.578127125004
 615756.902872033 510725.213511190 -1786.85460802178
 544988.123316735 585647.121349917 -2322.64897465884
 475305.901328837 643490.226988566 -2151.26292781659
 409168.154049448 687442.920009094 -1911.39769193551
 349902.808132090 719420.216721219 -1605.18973053731
 304793.770208313 739661.057708510 -1509.08970296812
 211694.412821988 -771481.515809289 -1321.49330556410
 245263.616324323 -761474.778075572 -1385.95175728466
 290757.371768063 -745289.880583406 -1773.31962697939
 343822.002617787 -722345.061858527 -2010.50354303313
 403507.288811143 -690779.069906309 -2478.80125366322
 469590.064757474 -647673.232026244 -2134.38463037064
 542335.432615848 -588108.381559537 -900.038223019540
 620627.657622543 -504788.527837299 3138.91028999284
 699906.328097906 -387327.201033659 10429.3445593513
 767158.194786511 -225930.537184475 20583.8902891746
 799199.149344461 -23304.7703943001 27158.9278867802
 777556.449393111 186719.316352780 23277.9919221906
 713364.471569518 361843.755723942 13424.8704252585
 631291.659068327 491369.515057263 5180.81684186320
 547555.547578248 583251.929288885 330.601087451315
 469128.691442414 648009.106102677 -1571.39222915852
 398112.861209996 693903.231866384 -2110.57920446159
 335333.999428661 726324.619727127 -1911.96376090978
 282035.568004809 748634.124997955 -1698.60788631104
 243043.802131878 762185.894768548 -1540.14971651152
 155417.990634913 -784757.010435536 -1297.21212060071
 181269.922748009 -779191.239641621 -1492.37149678145
 217102.904160359 -769976.310539972 -1676.36881122774
 260616.394184452 -756356.015827028 -2161.57455551911
 311951.487440863 -736669.640752848 -2027.28303467164
 372881.797993955 -707783.758055272 -1147.41359231669
 445808.929764303 -664263.090857982 2990.69660906979
 533633.906423218 -595875.116153631 12949.8982387604
 635672.568547079 -484560.754518203 33485.2322302021
 737658.352723641 -302953.064393307 63871.7107313508
 794433.317353687 -36388.2031097177 86899.9594525883
 757106.245086282 248083.416286496 72420.6615198503
 657429.816210813 453943.239795115 41491.8281271473
 549124.200760540 581499.798529386 17905.2073258588
 453805.304095089 658810.360177299 5445.66783980538
 374430.665606755 706966.527520947 74.9550268666377
 308915.951876731 737948.856240981 -1555.71485890597
 254801.487576804 758335.489870655 -1867.27911202350
 211161.021405772 771627.018377860 -1663.59495218751
 180263.492913659 779424.562194344 -1557.23174978785
 99029.9782504063 -793845.922801511 -1309.29719303054
 116058.718528958 -791535.502192419 -1386.58660383003
 140214.515366372 -787614.568819621 -1783.44152040639
 170313.787319789 -781658.371523500 -1845.01382672659
 207551.973668889 -772605.671339961 -1629.36781514604
 254339.434618296 -758492.135636723 1064.03725930165
 315556.862753766 -735078.795290464 9112.13933840328
 398738.614902642 -692856.941520561 30931.7890251627
 513810.792440520 -608051.552765682 79194.5626346131
 658198.324754171 -424064.356360081 164147.454916953
 760335.478551876 -60870.9607797068 241215.020653866
 693331.787596462 350677.518790383 190568.386998773
 544610.961459896 577534.300385695 99262.4427249968
 417362.909489860 681249.623472392 41317.6996078436
 324602.945193476 731054.644012014 13857.6852392089
 257170.095961725 757531.907310377 2991.84721191350
 206412.966653480 772912.116927249 -739.394582587448
 167151.279781363 782341.364495220 -1561.75132813208
 136788.356945166 788217.177250230 -1620.76892880387
 115907.783952639 791557.407390858 -1502.13975810373
 42217.1850006405 -798884.351855628 -1225.41863629437
 49690.5658762768 -798454.014023077 -1426.58800369348
 60383.4600832677 -797716.384847663 -1551.48121088346
 74149.5177867317 -796554.207108747 -1801.15222864415
 91630.7780658794 -794734.691524610 -755.379590008121
 114862.614216561 -791705.167644315 3083.40406460593
 147407.623225588 -786133.378992514 16288.1260062448
 197225.308766877 -773521.489997899 52599.2594362400
 280104.833874932 -735293.496742564 144515.589774914
 418005.965692348 -590953.338831999 340654.023855464
 553073.824421661 -104454.176635875 568505.646166262
 461841.990665206 506673.734600789 412290.798252991
 307630.577596878 714686.761354251 185973.817706641
 210665.204233182 768519.143906644 70700.0507382452
 153484.773559011 784786.720776443 23499.5144311023
 117005.171212272 791374.786388493 5978.07478661936
 91744.8762289568 794721.833202308 292.433406230318
 73151.2243878626 796647.492063224 -1292.96555712144
 59295.1987152052 797798.197384739 -1454.53050406271
 49950.5941857868 798437.789796761 -1426.17143062433
 -14959.1448228181 -799859.259366443 -1178.63986687484
 -17515.5402231783 -799807.265760240 -1242.37185240967
 -21016.7414698084 -799722.324759165 -1581.09449046283
 -25378.1872735715 -799596.075863013 -1436.34089927162
 -30583.3692389134 -799414.994867808 -568.776316101353
 -37285.9075112151 -799119.561360084 4205.68100710702
 -46440.5390497590 -798428.614530434 18842.0761005453
 -60935.7976144222 -795318.024806108 61286.7684545860
 -87206.3443782671 -776211.106735649 172891.212270607
 -137422.961194211 -659214.457643092 431915.765596647
 -194397.750024584 -127165.846839679 765531.424686751
 -155989.786937319 575481.019141148 533374.899090232
 -97199.3861473776 761416.316668500 225382.945325389
 -65084.4125456449 793061.885789088 82564.3055578058
 -47893.6751757635 798104.609121410 27115.1023844755
 -37324.0283375647 799095.646950093 7284.49957570262
 -29972.4506741682 799438.020284606 709.876056023730
 -24361.0463099266 799628.359803967 -1012.72893859353
 -20028.6852600777 799748.110378387 -1345.99886776920
 -16993.2586618729 799818.448986168 -1295.30745821908
 -72334.3140565049 -796722.454632561 -1037.92785888685
 -84777.6806381767 -795494.345225981 -1221.30221386479
 -102382.411178830 -793420.519441181 -1311.94927331118
 -124247.647409642 -790291.224446477 -1517.45710244982
 -151362.080856438 -785550.295471243 -503.749792172508
 -185801.693711345 -778118.722778215 2997.31146096559
 -232257.029623717 -765402.133893412 14705.2923052039
 -299319.029960828 -740492.358210798 45598.0891564580
 -402304.483130416 -681085.026326221 119475.059185499
 -553296.857307407 -514261.412824066 263434.597146887
 -680186.067325922 -83439.6392608412 412776.865165331
 -596568.389267969 431985.835312839 312240.924632389
 -433974.331705028 654778.384558432 151431.656321344
 -316061.424900588 732407.489287158 60699.6320078854
 -239530.259766188 763009.103170074 21032.4305761742
 -187629.934180870 777665.181732986 5645.61063880957
 -149943.362155961 785822.337975852 491.206202210370
 -121250.268817542 790757.458703096 -1006.88484731314
 -99163.4352069411 793829.459575786 -1184.15690397670
 -83975.5886210384 795579.494748011 -1169.63765787505
 -129726.831542077 -789411.213767381 -940.614886373001
 -151573.372851842 -785509.088880639 -991.931562489166
 -181955.762369596 -779031.698651853 -1308.83005325204
 -219100.580112455 -769410.995939062 -1286.51562259439
 -263475.153848312 -755367.311012139 -1033.80795977269
 -317360.750957186 -734357.094417006 1345.96853701715
 -384420.735652946 -701539.298254837 7956.82123447598
 -470354.273521632 -646637.778718783 25028.7936899776
 -579832.352374116 -547865.033720785 60318.7198672346
 -703354.760705428 -362616.345520740 117479.643148051
 -781383.617599851 -48537.5048512824 164571.421484361
 -730693.801537419 296767.549855007 134222.165635377
 -606763.877601137 516031.498749368 74492.2085651448
 -487726.092818322 633273.383566970 32986.0584158398
 -392808.105781766 696822.291106797 11852.7063919831
 -318986.181561966 733647.513402784 3023.58238292302
 -260638.083688704 756351.605595955 -195.047433170700
 -213676.383470184 770935.438434019 -976.172961763701
 -176351.373291538 780319.813102528 -1087.39037374570
 -150126.537207203 785786.880031561 -1000.99772156427
 -187256.020384163 -777775.415363966 -765.562078907041
 -217555.003392723 -769849.971160908 -917.824787161066
 -258902.168998600 -756946.923693154 -1010.74195087124
 -307672.841119719 -738468.431808345 -1340.91753813565
 -363472.892141822 -712661.386113759 -1097.91642441186
 -426892.633619146 -676581.553601922 -284.055132970015
 -499426.057048993 -624951.262392987 3087.58382970172
 -581848.413090927 -548945.240629018 10561.5801052521
 -671492.788113255 -434127.429657148 25115.9377918495
 -754346.853757989 -262535.668064362 45120.3636889351
 -797233.210401924 -29975.5437687699 59335.2762529134
 -769022.962890009 214585.031032759 50566.2635018864
 -689107.938556716 405204.871714994 30647.3645938538
 -594995.397305400 534580.955710175 14271.6143931036
 -505859.475312510 619742.349445544 5060.78455074306
 -427033.937432311 676491.968549469 795.467863452063
 -358548.590618276 715152.095110768 -623.718147567412
 -299675.015618637 741750.558931402 -996.663895930912
 -250602.842930286 759735.092543978 -896.812382826504
 -215099.262322153 770539.819915228 -832.630454991003
 -245273.328113361 -761472.643715258 -638.270704674188
 -282940.329841910 -748294.272758323 -671.644284607305
 -332826.722916433 -727478.865170299 -934.474847725305
 -389388.840923270 -698838.532943577 -1017.56459302357
 -450532.022667359 -661074.326117802 -1277.45808195954
 -515557.346826523 -611718.823774374 -838.315747359024
 -583768.410621401 -547004.930579733 220.640035458623
 -653747.295753247 -461089.373814455 3326.05632992967
 -720885.868318305 -346773.888337069 8451.93626066239
 -774921.661541331 -198151.226298319 15248.2782797091
 -799521.009968264 -19772.0986139831 19370.5636399092
 -782813.043031378 164055.633843106 17014.3664087441
 -731575.367585242 323551.875779553 10567.1766357338
 -662336.222310503 448650.117829851 4878.56400106937
 -587642.344468343 542839.654260398 1258.86861906322
 -513799.239250271 613196.750139643 -295.574055205884
 -443655.986733643 665709.106183729 -866.821467882945
 -378860.851287112 704601.856156479 -824.416671564928
 -321901.718929639 732378.826482771 -733.396116255340
 -279106.816944967 749732.616968781 -622.726258194229
 -304337.239425879 -739850.411645164 -461.613600458895
 -347991.051497195 -720348.462360557 -566.438574519857
 -403864.325279993 -690574.550578168 -629.968171695145
 -464081.028250497 -651634.822300994 -926.057619016158
 -525475.180783141 -603220.433429859 -971.119774998568
 -586292.797222220 -544297.198503958 -1147.00744910989
 -645398.469271965 -472715.946451141 -670.695316797147
 -700923.088124541 -385625.211016756 145.472471460495
 -749462.071286617 -279825.912616253 2015.52257593526
 -784960.573743382 -154340.658848181 3982.29767480529
 -799866.111835513 -13617.5164585429 5363.43011882729
 -789366.256549090 129922.221132711 4596.68115268463
 -755793.257972392 262238.007515567 2789.01734366488
 -706172.403309392 375925.248807381 862.620047610815
 -647137.783102961 470332.486814904 -203.781974229694
 -583208.361761845 547601.541732901 -747.169869603268
 -517212.107639278 610320.475938848 -743.210007199509
 -451750.037562651 660243.481382649 -669.965568473810
 -390656.887847507 698131.043854103 -491.512442749921
 -342737.420758544 722862.975417120 -423.299996640396
 -364762.699301278 -712002.851863327 -334.868534466928
 -412838.042121919 -685247.857574730 -353.080988103690
 -471696.189161801 -646144.279800612 -524.224363029016
 -531690.310562867 -597750.001600571 -590.965379644054
 -589017.279238877 -541348.220611658 -865.331510860138
 -642199.706831096 -477052.173461883 -871.975543690726
 -690371.098672865 -404211.267167476 -998.805328721926
 -732601.238048768 -321395.415148028 -642.752859895498
 -766973.014653959 -227491.354526959 -280.014477541852
 -790555.088672264 -122566.111998050 447.173421971861
 -799940.284310320 -9748.75415780867 709.457464765444
 -793096.394400160 104869.793661176 659.974946029492
 -770760.195697198 214309.861262396 63.9883537187444
 -735678.509168606 314288.106296849 -342.619026194791
 -690866.099230675 403365.303763492 -681.655027929706
 -638555.176265448 481919.969611667 -655.556323399942
 -580472.543349510 550500.919175872 -603.658737886548
 -518633.488456764 609113.402278433 -409.653461697539
 -457156.979165097 656511.542432609 -301.750559635748
 -406422.139579339 689072.565360307 -210.065511142051
 -426028.915073538 -677125.783298857 -192.647799466625
 -476578.231219485 -642552.039635862 -256.685607327471
 -535208.107737936 -594602.550051179 -298.134552928772
 -591263.567252313 -538894.388436059 -481.821747716148
 -641577.448937500 -477889.198010178 -539.851866865892
 -685440.366917184 -412517.785596961 -761.555392185820
 -722970.698167070 -342509.574504355 -748.975744298755
 -754064.239637386 -267182.320302248 -854.527939207240
 -778126.500255862 -185792.131731285 -658.320825310323
 -793899.321185142 -98607.8220210276 -604.365815822086
 -799967.674044193 -7180.31572538599 -404.413659204196
 -795429.468806828 85391.5125340731 -499.740763670404
 -780428.797005194 175871.059991967 -512.896020049734
 -755912.115695132 261909.244888730 -648.681065679970
 -722894.013669754 342671.728250003 -575.898072144050
 -682060.073977486 418083.450867022 -532.538212153984
 -633780.444175899 488182.573421209 -351.550915301806
 -578936.121720190 552116.755263227 -235.637839258235
 -520679.882956688 607365.171180386 -91.2207798078234
 -469697.571238834 647598.788464757 -27.4102273918301
 -485446.791064507 -635878.449790580 -100.683172260345
 -536279.997005364 -593636.040872790 -125.653515399717
 -591346.135412735 -538803.950765425 -225.326411038914
 -640767.493374165 -478974.883686584 -283.253266325520
 -682655.136211216 -417111.219063478 -442.646388872640
 -717405.425122434 -354018.659157171 -494.947935396267
 -745796.399876218 -289460.373065146 -649.889727613249
 -768392.477626458 -222649.028528824 -640.642055653518
 -785232.827921123 -152999.642293367 -717.922765353761
 -795952.509455991 -80369.1897521140 -629.308588158749
 -799980.636547543 -5527.28505182532 -655.948887786063
 -796914.711127189 70189.8139288035 -577.243196844248
 -786709.514438214 145216.293542624 -606.615307362419
 -769562.611490823 218570.629213850 -516.759601820997
 -745622.079109523 289909.455112592 -472.208334674409
 -714702.651847938 359444.037120708 -321.900436597361
 -676356.793746026 427248.689427419 -211.981482908636
 -630367.618250194 492581.630535942 -55.8581334511091
 -578466.669985019 552608.640219103 49.7155560608621
 -529908.829318083 599330.137807168 136.113112193134
 -534838.779407469 -594934.852470870 -36.8428304524814
 -583577.840297042 -547208.276216059 -82.1881377386294
 -633069.020900428 -489104.890885576 -143.136240418446
 -675497.516360137 -428605.933313041 -243.557266160201
 -710103.783632625 -368446.078036081 -322.568536666073
 -737848.540869292 -309159.085028162 -436.899996505695
 -759863.769430281 -250213.516951694 -497.837191858527
 -776918.700422107 -190779.966220728 -580.881435517870
 -789346.305671099 -130123.262428861 -588.471119403426
 -797107.331467394 -67967.0884890979 -614.005899532944
 -799987.020549737 -4520.55343969121 -575.802530392460
 -797778.674965244 59572.3514469979 -566.315968873696
 -790387.574538925 123641.530861237 -503.845972931719
 -777769.267428969 187282.572201792 -452.540037751628
 -759742.849179834 250580.693468259 -345.226121265530
 -735832.529958435 313927.428100576 -240.293833188288
 -705251.704291133 377650.663181543 -100.960359450655
 -667317.040300542 441234.594146661 25.5491005478506
 -622859.088475037 502042.361210733 153.146983856890
 -579073.902459663 551972.242533524 242.822262451688
# End: Data Text
# End: Segment
