# OOMMF OVF 2.0
#
# Segment count: 1
#
# Begin: Segment
# Begin: Header
#
# Title: Oxs_TimeDriver::Magnetization
# Desc: Oxs vector field output
# Desc:  MIF source file: C:/Users/Victor H. González/Documents/GitHub/Intro-to-magnetism-in-python/vortex_dynamics/drive-2/vortex_dynamics.mif
# Desc:  Iteration: 3498, State id: 22027
# Desc:  Stage: 499, Stage iteration: 6
# Desc:  Stage simulation time: 1e-11 s
# Desc:  Total simulation time: 5e-09 s
# meshunit: m
# meshtype: rectangular
# xbase: -4.7499999999999995e-08
# ybase: -4.7499999999999995e-08
# zbase: 2.5000000000000001e-09
# xnodes: 20
# ynodes: 20
# znodes: 1
# xstepsize: 5.0000000000000001e-09
# ystepsize: 5.0000000000000001e-09
# zstepsize: 5.0000000000000001e-09
# xmin: -4.9999999999999998e-08
# ymin: -4.9999999999999998e-08
# zmin: 0
# xmax: 4.9999999999999998e-08
# ymax: 4.9999999999999998e-08
# zmax: 5.0000000000000001e-09
# valuedim: 3
# valuelabels: Magnetization_x Magnetization_y Magnetization_z
# valueunits: A/m A/m A/m
#
# End: Header
#
# Begin: Data Text
 565584.776395923 -565785.618169456 -703.549415970402
 610757.689115234 -516695.830033164 -681.478509870401
 656476.644123856 -457206.642097953 -708.619358410440
 695443.300821666 -395421.310093904 -776.444388078505
 726928.443445968 -334027.367510516 -869.403943219887
 751785.137999402 -273529.084507490 -972.734143731603
 770984.393721917 -213499.220001376 -1071.30576984585
 785174.683496331 -153295.101010171 -1152.56354141074
 794635.967171537 -92478.2240669217 -1207.37350635502
 799397.242172316 -31024.6202825799 -1233.75184565110
 799409.794478602 30699.5467226460 -1232.20237922596
 794672.836682617 92160.9162159806 -1203.39562615571
 785233.902730029 152991.520009096 -1145.77863172787
 771063.719266074 213212.598078411 -1062.47457535036
 751882.989145924 273260.033949277 -961.498325581726
 727044.531423536 333774.648749293 -856.258966028631
 695578.858548599 395182.834348245 -760.905194875617
 656634.189449949 456980.376088989 -690.735097708179
 610940.040470974 516480.232447802 -660.636049104548
 565791.674526613 565578.746950632 -679.730921191576
 516489.845729114 -610931.890378526 -681.599029480650
 565589.999946262 -565780.427573536 -678.037975276342
 618130.146263913 -507852.922900303 -728.684686110562
 664724.541530411 -445129.877522811 -822.206611610167
 703699.269356341 -380534.427008912 -942.426841338222
 735424.593811169 -314880.171140580 -1069.87857087418
 760594.183924225 -247982.016348987 -1186.14844447726
 779633.961964736 -179357.926083845 -1272.67516304018
 792568.729578623 -108779.860218012 -1323.21769861218
 799161.341629440 -36597.1286054822 -1341.72384192283
 799178.845490622 36212.9230887245 -1340.56765871386
 792619.671471216 108408.111354011 -1318.25244854020
 779714.396234351 179007.982513993 -1265.89935273738
 760699.485875932 247658.854711398 -1176.38052127542
 735550.928663908 314584.980851139 -1058.85057994551
 703844.319762328 380266.104892269 -928.982436662576
 664887.420792340 444886.576130363 -807.496818313122
 618310.642709405 507633.177219044 -711.687276715271
 565787.095595649 565583.351900411 -659.174131754145
 516699.210906940 610754.852128416 -660.340625776772
 456997.527646644 -656622.233139465 -708.993509474208
 507646.674579758 -618299.541040275 -728.929007882357
 565587.641718779 -565782.602849445 -815.995036158385
 620204.164983050 -505317.605305827 -954.728057571637
 668408.853861287 -439577.467440610 -1119.90996917580
 709547.163487040 -369514.785291271 -1283.05831605928
 743585.853796036 -295089.982709253 -1407.17414463203
 770299.701940737 -215954.208163691 -1466.00354852960
 789011.153894874 -132133.548142693 -1457.56121762116
 798750.419895065 -44673.6183483447 -1426.37341656352
 798776.638783772 44202.4292226243 -1423.58144078541
 789086.297979050 131684.112910737 -1452.15310157056
 770415.198969246 215541.875369782 -1456.42001293484
 743731.828611892 294721.930913421 -1396.62030507068
 709715.208513596 369191.969510757 -1269.82411074177
 668592.863799630 439297.573963157 -1106.33913978756
 620399.828162180 505077.391241373 -939.187493210065
 565791.279100184 565578.985272422 -799.945245299698
 507854.185005248 618129.129778851 -711.119888375683
 457204.630768558 656478.064904812 -689.856955998278
 395210.861868042 -695562.916372802 -777.192693515145
 444912.967154801 -664869.742604801 -822.815980611592
 505096.898904427 -620383.921861552 -955.098325680270
 565577.934352500 -565791.732239940 -1147.12792992301
 622430.285415065 -502572.076441255 -1359.33058773129
 673936.545544933 -431053.588548569 -1528.52162694414
 718993.182302226 -350779.572063520 -1579.75499746285
 756212.033743109 -261038.799355157 -1450.94911283413
 783456.242638289 -161848.492321831 -1175.33154716387
 798097.084901454 -55137.9029198368 -924.517931547373
 798137.358919786 54551.8740603202 -921.592673714489
 783569.054427208 161301.518653591 -1164.91377217393
 756378.786038066 260555.296569013 -1438.56227348674
 719194.030411077 350367.663464595 -1564.29518683928
 674155.657240818 430710.875754210 -1513.70976153461
 622656.656558808 502291.633061982 -1342.90689748245
 565804.033283811 565565.659850156 -1131.51139196987
 505317.152431812 620204.558998091 -938.326270247691
 445123.185540299 664729.042478506 -806.089366207249
 395409.976402039 695449.763974069 -759.177285740312
 333818.315919696 -727024.465847128 -870.641278715125
 380308.402168711 -703821.446816477 -943.525858050443
 439337.937595325 -668566.317125164 -1120.80113393803
 502321.164693686 -622632.795627756 -1359.89321116940
 565560.333721972 -565808.291219866 -1576.86624249161
 626891.452027850 -496995.409157222 -1634.21267242267
 684364.157380595 -414299.313250566 -1333.84139201083
 735150.885356398 -315520.058985625 -517.819864496839
 774720.793442344 -199517.367742180 715.665631219455
 797032.780605945 -68816.1312768340 1756.90513288234
 797096.164464569 68077.8025937484 1765.61317389946
 774892.029137015 198851.212860890 733.705439496075
 735390.085858165 314962.183637219 -494.469408510486
 684634.167236962 413853.034629510 -1312.54702679080
 627166.882882486 496647.862302501 -1613.03621255741
 565826.339616657 565542.327260596 -1558.67658082777
 502569.715501142 622432.230214464 -1341.58538699708
 439564.960610842 668417.104822101 -1104.25741156238
 380512.812953288 703710.978229592 -926.443482898006
 334003.698075000 726939.338150210 -853.417810104788
 273322.339228747 -751860.325511642 -974.576858541742
 314651.484222166 -735522.464062717 -1071.60435697750
 369256.904679460 -709681.398924516 -1284.66613791591
 430773.859639593 -674115.376693835 -1529.95298511965
 496694.740437938 -627129.700101916 -1635.25880819238
 565533.367254543 -565836.032299736 -1262.96200664077
 635492.297044089 -485952.188025922 106.538482444282
 702929.795415922 -381943.352054940 2996.42079243135
 760276.271983328 -248852.431940170 7242.74648159495
 795108.235114441 -87651.5369591358 10959.1296141905
 795211.927800066 86703.2505888398 10978.8989352769
 760540.189661045 248043.381037438 7287.04561935937
 703268.941052945 381318.176988372 3040.46847276724
 635843.269427592 485492.858646744 144.660438159817
 565863.082755814 565506.364280475 -1234.31453225977
 496989.984222161 626895.813689635 -1610.70210345362
 431031.465968302 673950.735638606 -1510.38981645840
 369478.347096700 709566.168926105 -1266.07354450195
 314840.944658261 735441.409519656 -1054.86038607931
 273488.036497337 751800.091458903 -957.274891248967
 213298.377545914 -771039.978816035 -1073.87320025746
 247751.494391761 -760669.300102945 -1188.65787562200
 294824.964521258 -743690.965972827 -1409.76077465741
 350471.075050728 -719143.602515686 -1582.56549591842
 413955.087870832 -684572.419701282 -1336.94060619616
 485571.627383438 -635783.126499149 103.629949955236
 565482.204402839 -565873.539680994 4124.75364204748
 651469.761287315 -464146.325310405 12463.4998735215
 734167.635598740 -316779.389734668 25469.6108860475
 790640.331038635 -115975.365353453 37915.4528688653
 790820.502222276 114719.961025747 37977.1484864064
 734581.732045463 315808.974050758 25580.6734488317
 651939.475286927 463483.671847094 12562.1054661160
 565915.148185816 565440.064711582 4192.64508253001
 485939.924697967 635501.665645767 150.153223460065
 414258.629274174 684388.838513240 -1306.05910308118
 350718.357599801 719023.091643228 -1557.98790515583
 295025.931944623 743611.300061532 -1390.64769281710
 247915.987532506 760615.732701861 -1170.59480340225
 213437.939356363 771001.381085401 -1056.60196547919
 153102.096688239 -785212.335436107 -1155.97086439293
 179134.917164744 -779685.226828138 -1276.13413722749
 215684.582730171 -770375.233343546 -1469.90591156343
 260719.619574552 -756322.127332533 -1455.91074338581
 315135.260623153 -735315.913088859 -524.852621827318
 381494.848651252 -703173.351938278 2986.23114409224
 463628.911930181 -651838.316556936 12451.5497291078
 564920.753272846 -565469.744436819 33294.3035397918
 680457.586438707 -414876.380110728 69678.2769895345
 775321.760982251 -163639.564369846 109992.090262110
 775658.056610224 161903.872717994 110189.451466849
 681105.399190311 413761.655251725 69976.6235050071
 565532.250881385 564845.372742502 33510.8654680572
 464113.477557740 651490.907242389 12580.8477357502
 381861.850759204 702973.808137570 3058.10518420358
 315412.320387707 735197.141560905 -480.820462278722
 260930.858659046 756249.329271358 -1427.92719549220
 215847.880022217 770329.538016960 -1447.60094359810
 179263.692574971 779655.658610497 -1257.98291648948
 153208.700870666 785191.568273020 -1138.02042051593
 92298.8252633131 -794656.818141419 -1211.70803672774
 108566.958456041 -792597.913547326 -1327.76956940172
 131877.079677205 -789054.050864661 -1463.10282699207
 161528.077131533 -783522.354482510 -1183.35302150907
 199123.993409028 -774822.006885629 702.064503455314
 248354.035792019 -760439.464761994 7217.57149664448
 316153.445172354 -734438.962832356 25424.5743206422
 414090.631752501 -680942.401915071 69616.0467776533
 553823.838285046 -554710.834433013 159922.000706122
 704677.184535835 -250834.576710602 283746.507857033
 705299.179698485 248331.566599852 284402.004470268
 554727.885426226 553586.509120903 160682.762142922
 414752.199020517 680493.669786542 70064.1048475649
 316589.468891196 734243.360743028 25647.5221410379
 248645.157927242 760343.270500186 7327.78577871614
 199325.843938178 774770.051512440 758.431107291117
 161673.293891966 783492.454895690 -1148.54849576215
 131984.892946948 789036.066721528 -1439.94666683557
 108649.610288811 792586.620767157 -1307.96215088264
 92366.0259731717 794649.037356050 -1193.59751467885
 30861.9208573252 -799403.531772500 -1239.04424825837
 36406.5298904729 -799170.037644402 -1347.40965549620
 44436.7072636723 -798763.621872684 -1433.67374071715
 54847.4865726539 -798117.082311723 -936.022908960609
 68444.2517053027 -797064.849512023 1734.95846574217
 87175.3006718447 -795161.241526168 10911.7792929260
 115329.381892895 -790739.911281315 37809.0779975010
 162721.446834317 -775547.311609864 109763.829173639
 249459.092042045 -705321.029445583 283359.148113102
 381788.872721821 -383569.952681415 589161.563635797
 382449.614411854 380114.936729876 590969.480862648
 250112.694666775 704459.599429419 284921.590509156
 163077.465149619 775367.540794982 110503.018247999
 115523.826814779 790696.112606495 38130.0792950448
 87291.4982998643 795146.550223832 11052.5106516579
 68519.7914179936 797058.206454222 1803.80376220296
 54899.7734889520 798113.530007322 -898.938326315634
 44474.5947410602 798761.559121914 -1407.86780178121
 36435.1146220375 799168.767638667 -1327.87551165276
 30884.9361285075 799402.671661623 -1220.35265228095
 -30839.7480585614 -799404.388462239 -1238.40502201090
 -36379.0926791265 -799171.287307925 -1347.27815904164
 -44400.5551322630 -798765.634700401 -1432.31477453751
 -54798.4764928104 -798120.449214152 -935.692399600858
 -68376.4262129171 -797070.664834743 1737.69912504446
 -87079.3970242656 -795171.704848135 10915.0548694124
 -115190.080359108 -790759.704530935 37819.7709804142
 -162512.358574306 -775587.086776600 109792.550457683
 -249137.402761179 -705398.055118711 283450.416087463
 -381325.660151589 -383654.298466602 589406.583080010
 -381985.573939913 380198.711727722 591215.663613858
 -249790.158036302 704537.036703108 285013.053844562
 -162867.751405952 775407.371580688 110532.817073927
 -115384.155372205 790716.047789475 38139.5917287362
 -87195.3439188697 795157.033276670 11057.3246997624
 -68451.7978069949 797064.046091862 1804.93896325905
 -54850.6438685776 798116.910066484 -897.069189180920
 -44438.3553574294 798763.576255763 -1407.77137039515
 -36407.6113409702 799170.022685156 -1326.90536668249
 -30862.7098559180 799403.530590820 -1220.00790224189
 -92277.7101558477 -794659.272336092 -1210.41260128914
 -108541.087614131 -792601.460167642 -1325.76003212488
 -131843.522510192 -789059.661309191 -1461.66573798038
 -161483.629249687 -783531.522060790 -1179.58528850146
 -199064.651204373 -774837.251239966 706.209441887437
 -248274.869803408 -760465.219171764 7227.68663828132
 -316049.483755850 -734483.036157984 25443.9268551947
 -413960.761501503 -681016.499891597 69663.5831155382
 -553682.346451362 -554820.025009304 160033.118687313
 -704559.077928174 -250916.298436920 283967.457444891
 -705181.364408494 248412.762467647 284623.159166938
 -554586.253708879 553695.769224048 160795.156458581
 -414622.183012171 680568.077463193 70110.8928218373
 -316485.283138948 734287.547492110 25668.3297953430
 -248565.825545260 760369.125874653 7336.40154432626
 -199266.366654177 774785.345168235 764.220506795005
 -161628.744017291 783501.649733216 -1146.28649274462
 -131951.257684594 789041.697180624 -1437.25633533540
 -108623.678279818 792590.177126200 -1306.76701071819
 -92344.8605660766 794651.499618024 -1192.00749064201
 -153082.875202278 -785216.086629654 -1153.52408515943
 -179111.790842115 -779690.543278070 -1274.01102007681
 -215655.403737611 -770383.409210880 -1466.16895032196
 -260682.457810828 -756334.943624483 -1452.32305501527
 -315088.354312256 -735336.019238206 -517.482078810789
 -381437.256264756 -703204.551534011 2996.37031508503
 -463562.194786615 -651885.369521472 12472.2318960745
 -564852.430742751 -565535.770433122 33332.0243102668
 -680404.014622546 -414952.070754943 69750.6692563329
 -775296.803712217 -163682.013328241 110104.789479995
 -775633.099059832 161945.954677541 110303.233889230
 -681052.014333905 413837.399915952 70048.2705178053
 -565463.883429628 564911.490996844 33550.0205127536
 -464046.698738645 651538.101201792 12600.1615913168
 -381804.160134696 703005.091757754 3069.89682425012
 -315365.324785060 735217.305470734 -475.036383930617
 -260893.619920627 756262.186424666 -1422.83832387122
 -215818.636554328 770337.736277859 -1445.05437123529
 -179240.513620665 779660.992411807 -1255.06511252910
 -153189.434342152 785195.330518157 -1135.84260098199
 -213281.548135428 -771044.638359513 -1070.92576909543
 -247731.731094054 -760675.742455635 -1185.01000408984
 -294800.906617709 -743700.509271831 -1406.40186138799
 -350441.865325188 -719157.849781278 -1576.74518294271
 -413920.511122440 -684593.339076047 -1330.62573486576
 -485532.684509824 -635812.864805518 114.980360602087
 -565442.123999310 -565913.474623871 4140.48865285325
 -651434.909518503 -464194.502411255 12490.9003593739
 -734146.344922285 -316825.439027112 25510.4963206472
 -790634.470630945 -115996.770476836 37972.1356927611
 -790814.754709031 114741.191482941 38032.6532281265
 -734560.482575253 315854.964289061 25623.0164650559
 -651904.673910750 463531.913573721 12588.1385440076
 -565875.045484915 565480.069135257 4210.02473037755
 -485900.938323654 635531.472519747 159.915835364393
 -414223.999420051 684409.813746530 -1298.13400621034
 -350689.092955454 719037.374902262 -1553.56871279094
 -295001.825237203 743620.872294098 -1386.14403407812
 -247896.180390798 760622.192875826 -1167.66965393259
 -213421.071343513 771006.054891266 -1053.38862425841
 -273308.061790531 -751865.520615417 -970.705934574263
 -314635.199401067 -735529.435588483 -1068.02656310338
 -369237.879771216 -709691.306547594 -1279.66902972396
 -430751.940361881 -674129.394038530 -1525.11236258785
 -496670.433605714 -627148.971030616 -1627.42654229686
 -565508.134990824 -565861.269231024 -1254.29001991950
 -635468.821453596 -485982.882878439 120.455553255947
 -702911.812201933 -381976.308738174 3013.93924180421
 -760266.950022435 -248880.165478511 7268.28280781425
 -795106.561968575 -87663.0463208779 10988.4222824166
 -795210.257965732 86714.6553236503 11009.7310673517
 -760530.925049372 248071.078716471 7311.08391367173
 -703250.982454421 381351.143015686 3059.64009648189
 -635819.797221266 485523.594499476 156.989861435978
 -565837.834483655 565531.649757639 -1224.00541258414
 -496965.645188335 626915.124679693 -1604.35357259220
 -431009.512044517 673964.789779328 -1504.21569365065
 -369459.284843748 709576.101599999 -1262.09385234117
 -314824.625340266 735448.401655089 -1050.61045937604
 -273473.726408962 751805.301636665 -953.622042661361
 -333806.483601480 -727029.903744768 -866.352404085203
 -380295.350922275 -703828.505193855 -938.798960597628
 -439323.376723780 -668575.892742031 -1116.38175033901
 -502305.283978974 -622645.620948546 -1353.66184919763
 -565543.816053184 -565824.818130064 -1570.76799092631
 -626875.521291881 -497015.532815534 -1625.09849646801
 -684350.530490975 -414321.853177545 -1324.15869404277
 -735141.385061393 -315542.216005473 -503.873370282749
 -774716.379740273 -199534.450190972 730.855054555986
 -797032.166643977 -68822.7573622957 1775.78260457916
 -797095.565049216 68084.3704383898 1782.88554846642
 -774887.637716986 198868.261930575 750.539873147970
 -735380.604265446 314984.339993244 -482.109124942525
 -684620.550432814 413875.595635531 -1301.25416666718
 -627150.943790924 496668.014244888 -1605.40592793022
 -565809.807359717 565558.887924103 -1551.18845115483
 -502553.810294070 622445.083125898 -1336.50712939642
 -439550.373792615 668426.705975284 -1098.92574964308
 -380499.733805107 703718.055749217 -922.272619976970
 -333991.838728126 726944.792260964 -848.921473852992
 -395201.182826426 -695568.421483800 -772.092694647091
 -444902.700997116 -664876.618135662 -818.108768082727
 -505086.017525416 -620392.789466348 -949.567521882943
 -565566.730522586 -565802.942080913 -1141.95384137247
 -622419.326803428 -502585.667114028 -1352.34356425884
 -673926.645016919 -431069.091048859 -1521.80108772722
 -718985.275891609 -350795.819142319 -1570.45322601269
 -756206.897122728 -261053.730474564 -1441.71749296791
 -783454.020464091 -161859.335978473 -1163.26061512175
 -798096.819693200 -55141.9319404111 -913.092261684607
 -798137.100856966 54555.8670563575 -908.628288184181
 -783566.842449117 161312.339558637 -1154.34849157011
 -756373.664483739 260570.222738615 -1427.82960752725
 -719186.128099905 350383.919128086 -1556.39490774378
 -674145.757755552 430726.398424409 -1505.65617920605
 -622645.687622611 502305.245761910 -1337.07330934866
 -565792.815457714 565576.894477645 -1125.34859327619
 -505306.251201944 620213.447967660 -933.518239617539
 -445112.897920353 664735.937532322 -800.910713150589
 -395400.274561022 695455.285427626 -754.220027206367
 -456989.596080920 -656627.759398955 -703.321055412707
 -507638.646253495 -618306.139108820 -723.305097276103
 -565579.615986931 -565790.633124612 -810.831996412774
 -620196.379760431 -505327.171725438 -948.708609123675
 -668401.673230677 -439588.400150382 -1114.30501141378
 -709541.036421850 -369526.575016631 -1275.92706875476
 -743581.225886690 -295101.676151965 -1400.44319692856
 -770296.852138450 -215964.431474319 -1457.36871431180
 -789009.978070556 -132140.657995346 -1449.48599813273
 -798750.293056177 -44676.1961079276 -1416.63121433596
 -798776.512466164 44204.9840996383 -1415.10181344351
 -789085.131209572 131691.206845794 -1442.82482318307
 -770412.354431351 215552.092562634 -1448.97598761073
 -743727.207520173 294733.629199012 -1388.74527022374
 -709709.080446759 369203.770519389 -1263.71107527501
 -668585.679519932 439308.524309505 -1099.82265603916
 -620392.032611379 505086.976390551 -933.891306810300
 -565783.239785579 565587.035553806 -794.223640312006
 -507846.139226244 618135.746170550 -705.818089339108
 -457196.680064081 656483.608175349 -684.058081897275
 -516483.184540439 -610937.529099683 -674.999660728863
 -565583.635419844 -565786.796998792 -672.076723293008
 -618124.181548500 -507860.191226336 -722.739611237503
 -664719.092081650 -445138.025352710 -816.705110817470
 -703694.505314430 -380543.251938120 -936.266329675860
 -735420.722952819 -314889.231412217 -1064.04519493201
 -760591.388742533 -247990.622348224 -1179.23621256327
 -779632.308062645 -179365.161582794 -1266.11029969392
 -792568.071695155 -108784.747185776 -1315.48817882811
 -799161.274016488 -36598.8652360978 -1334.60697373501
 -799178.780800176 36214.6443216978 -1332.61224538263
 -792619.016109952 108412.986742426 -1311.33766676102
 -779712.748114875 179015.213049478 -1258.54042414266
 -760696.693070460 247667.462139335 -1170.19191889340
 -735547.059472873 314594.049321175 -1052.34619592599
 -703839.552628639 380274.942017541 -923.379159964094
 -664881.965388334 444894.739976901 -801.524941817381
 -618304.667595297 507640.462829861 -706.064979175223
 -565780.717428158 565589.739459527 -652.996617220246
 -516692.533211309 610760.508447293 -653.792692249588
 -565578.851137480 -565791.550498758 -696.082050465325
 -610752.378300687 -516702.116477407 -674.705730655653
 -656471.947562634 -457213.395071468 -702.446115783035
 -695439.214237765 -395428.509127147 -770.369937775501
 -726925.017419100 -334034.838581907 -863.518269355867
 -751782.454377468 -273536.482363250 -966.491867737879
 -770982.517752183 -213506.025576074 -1065.06488720730
 -785173.605012996 -153300.675728854 -1145.78007130957
 -794635.548200467 -92481.9118607620 -1200.63096853524
 -799397.202836473 -31025.9184512656 -1226.57306245008
 -799409.755648498 30700.8333646064 -1225.31821442263
 -794672.420644718 92164.5951108411 -1196.35894310973
 -785232.826929842 152997.090126774 -1139.26489861457
 -771061.846126015 213219.404319636 -1055.96890163361
 -751880.306178019 273267.437226130 -955.475542024642
 -727041.104113635 333782.129756165 -850.167433485919
 -695574.767452417 395190.046554991 -754.975086120260
 -656629.485245935 456987.144952641 -684.436771042419
 -610934.718360585 516486.536413326 -653.915469360873
 -565785.734798379 565584.697823200 -672.225333801821
# End: Data Text
# End: Segment
