# OOMMF OVF 2.0
#
# Segment count: 1
#
# Begin: Segment
# Begin: Header
#
# Title: Oxs_MinDriver::Magnetization
# Desc: Oxs vector field output
# Desc:  MIF source file: C:/Users/Victor H. González/Documents/GitHub/Intro-to-magnetism-in-python/domain_wall_conversion_thin_film/drive-15/domain_wall_conversion_thin_film.mif
# Desc:  Iteration: 1282, State id: 2606
# Desc:  Stage: 0, Stage iteration: 1282
# Desc:  Stage simulation time: -1 s
# Desc:  Total simulation time: -2 s
# meshunit: m
# meshtype: rectangular
# xbase: 1.0000000000000001e-09
# ybase: 1.0000000000000001e-09
# zbase: 1.0000000000000001e-09
# xnodes: 75
# ynodes: 25
# znodes: 1
# xstepsize: 2.0000000000000001e-09
# ystepsize: 2.0000000000000001e-09
# zstepsize: 2.0000000000000001e-09
# xmin: 0
# ymin: 0
# zmin: 0
# xmax: 1.5000000000000002e-07
# ymax: 5.0000000000000004e-08
# zmax: 2.0000000000000001e-09
# valuedim: 3
# valuelabels: Magnetization_x Magnetization_y Magnetization_z
# valueunits: A/m A/m A/m
#
# End: Header
#
# Begin: Data Text
 0.000000000000000 -0.000000000000000 -0.000000000000000
 -0.000000000000000 0.000000000000000 0.000000000000000
 0.000000000000000 0.000000000000000 -0.000000000000000
 0.000000000000000 0.000000000000000 0.000000000000000
 0.000000000000000 0.000000000000000 0.000000000000000
 0.000000000000000 -0.000000000000000 0.000000000000000
 -0.000000000000000 -0.000000000000000 0.000000000000000
 -0.000000000000000 -0.000000000000000 -0.000000000000000
 -0.000000000000000 0.000000000000000 -0.000000000000000
 -0.000000000000000 -0.000000000000000 -0.000000000000000
 0.000000000000000 -0.000000000000000 -0.000000000000000
 0.000000000000000 0.000000000000000 0.000000000000000
 0.000000000000000 0.000000000000000 -0.000000000000000
 0.000000000000000 0.000000000000000 0.000000000000000
 0.000000000000000 0.000000000000000 -0.000000000000000
 -0.000000000000000 0.000000000000000 -0.000000000000000
 0.000000000000000 -0.000000000000000 -0.000000000000000
 -0.000000000000000 -0.000000000000000 0.000000000000000
 0.000000000000000 -0.000000000000000 -0.000000000000000
 -0.000000000000000 -0.000000000000000 -0.000000000000000
 0.000000000000000 -0.000000000000000 0.000000000000000
 0.000000000000000 -0.000000000000000 0.000000000000000
 0.000000000000000 0.000000000000000 -0.000000000000000
 -0.000000000000000 -0.000000000000000 0.000000000000000
 0.000000000000000 -0.000000000000000 0.000000000000000
 262325.077511205 235026.918077697 460812.219334123
 191281.368020462 235901.595036399 494127.388137415
 136686.520659583 238915.153325645 510525.557226434
 96567.9257650607 242877.416072229 517769.443358249
 67735.6320078420 247093.096010369 520343.046518841
 47259.0787021085 251141.009103624 520667.622410537
 32821.5230868092 254788.981316788 520005.117880406
 22695.5753409570 257935.270004404 518993.552318040
 15625.9115642972 260562.157198235 517941.302778594
 10711.4831141157 262701.039405973 516984.939843045
 7310.04559243101 264408.063891049 516173.361364981
 4966.11462114861 265748.320483059 515512.529300698
 3358.09227677203 266786.364042650 514989.086464134
 2259.90215377265 267581.109239441 514582.590864135
 1513.32967431785 268183.565520949 514271.606272180
 1008.15566582802 268636.305527951 514036.495761193
 667.948293451358 268973.898072096 513860.483011662
 439.948405360345 269223.813532744 513729.836268332
 287.895043099052 269407.498824919 513633.640538999
 186.969400958441 269541.442770882 513563.409591683
 120.240074364034 269638.134836741 513512.669545833
 76.1750670320572 269706.888437078 513476.570572552
 46.9037697348126 269754.507708224 513451.558933391
 26.9924841157901 269785.807883210 513435.114825826
 12.5733414631684 269804.005663689 513425.552899093
 0.705245906513716 269810.992119730 513421.881624527
 -11.1302448957961 269807.494619131 513423.719478819
 -25.4729331110664 269793.138287391 513431.263056868
 -45.3389042267710 269766.417234277 513445.301932899
 -74.7565228350123 269724.564164325 513467.286102851
 -119.472426733264 269663.321614749 513499.443721256
 -187.933423546977 269576.602896202 513544.954071181
 -292.702761855081 269456.036238579 513608.176394892
 -452.522903826746 269290.379011603 513694.935730156
 -695.333342381288 269064.821078699 513812.843912480
 -1062.69207185296 268760.193844392 513971.622650789
 -1616.22632075157 268352.150870355 514183.343697299
 -2447.03172226412 267810.459322733 514462.408649162
 -3689.31070635643 267098.640815128 514824.926612167
 -5540.07441699971 266174.364233466 515286.828281457
 -8287.47152026155 264991.224899417 515859.446498857
 -12351.2494222177 263502.842617109 516540.122904711
 -18339.9692389041 261670.563654122 517293.109992053
 -27130.5666168919 259476.373263026 518011.528899998
 -39975.4074066912 256942.686225062 518442.304213418
 -58636.3695987416 254160.161914760 518038.983335948
 -85523.4017591450 251323.256095776 515676.612516954
 -123745.699695287 248772.470208262 509116.155580830
 -176790.858151538 247054.723265083 494073.836775897
 -247084.422897497 247103.628780927 462913.690232541
 -0.000000000000000 -0.000000000000000 -0.000000000000000
 -0.000000000000000 -0.000000000000000 -0.000000000000000
 0.000000000000000 0.000000000000000 -0.000000000000000
 0.000000000000000 -0.000000000000000 0.000000000000000
 -0.000000000000000 -0.000000000000000 -0.000000000000000
 -0.000000000000000 -0.000000000000000 -0.000000000000000
 0.000000000000000 0.000000000000000 0.000000000000000
 0.000000000000000 0.000000000000000 -0.000000000000000
 0.000000000000000 0.000000000000000 -0.000000000000000
 0.000000000000000 0.000000000000000 -0.000000000000000
 -0.000000000000000 0.000000000000000 0.000000000000000
 -0.000000000000000 -0.000000000000000 0.000000000000000
 0.000000000000000 -0.000000000000000 -0.000000000000000
 -0.000000000000000 -0.000000000000000 -0.000000000000000
 -0.000000000000000 0.000000000000000 0.000000000000000
 -0.000000000000000 0.000000000000000 0.000000000000000
 -0.000000000000000 -0.000000000000000 -0.000000000000000
 0.000000000000000 0.000000000000000 -0.000000000000000
 0.000000000000000 -0.000000000000000 0.000000000000000
 -0.000000000000000 -0.000000000000000 -0.000000000000000
 -0.000000000000000 0.000000000000000 0.000000000000000
 0.000000000000000 -0.000000000000000 -0.000000000000000
 0.000000000000000 0.000000000000000 -0.000000000000000
 0.000000000000000 -0.000000000000000 0.000000000000000
 -0.000000000000000 0.000000000000000 0.000000000000000
 264572.862040122 163119.476925605 489686.876401048
 191988.650889370 162668.916981136 522569.786131827
 137141.350767938 164529.131151628 539001.312532758
 97025.6414285960 167767.130737138 546662.798029642
 68194.6915962869 171564.487982217 549831.892946823
 47683.7139653367 175372.157367113 550791.130868024
 33190.0706977099 178877.353970062 550727.983167507
 23002.2262118268 181934.148250475 550246.184257260
 15874.2076876672 184501.799162029 549642.698156051
 10908.9668410581 186599.754427403 549055.121176457
 7465.19467704632 188277.738973491 548539.664815101
 5086.90201162012 189597.143666698 548112.257244220
 3451.44435609212 190620.197147643 547770.050268587
 2331.59648566117 191404.229288609 547502.497408242
 1568.07160925634 191999.106296044 547296.888656375
 1049.72030028182 192446.550081510 547140.953913172
 699.330883504170 192780.493674599 547023.941153304
 463.501961452844 193027.934071521 546936.926742026
 305.453115654286 193209.968018409 546872.759384411
 199.946574090177 193342.829799695 546825.849961771
 129.715047622695 193438.829108564 546791.918893389
 82.9602000858906 193507.151471209 546767.752749834
 51.5962306860468 193554.514720515 546750.991923320
 30.0161316175905 193585.678470743 546739.960301105
 14.2120511839417 193603.827369178 546733.534572394
 1.12459895350057 193610.837953360 546731.052187209
 -11.8677593388541 193607.440878460 546732.255034994
 -27.3959617577828 193593.284503956 546737.267290635
 -48.5607253298105 193566.905970144 546746.605435280
 -79.4706452222984 193525.615192332 546761.218402372
 -125.940729661446 193465.273968381 546782.563645982
 -196.469941069279 193379.979762223 546812.714580344
 -303.639495851291 193261.639153423 546854.502253377
 -466.141631555716 193099.425394057 546911.688140292
 -711.748340227820 192879.146381491 546989.148251999
 -1081.64481298489 192582.547389455 547093.038235259
 -1636.74913180690 192186.622359369 547230.868316451
 -2466.90817727919 191663.101596087 547411.335149915
 -3704.23290387147 190978.375381198 547643.623897286
 -5542.36484705280 190094.307185660 547935.613523620
 -8264.19893371973 188970.658339046 548289.880722681
 -12281.5395296308 187570.195025705 548695.348736255
 -18191.3678105037 185868.036016445 549110.323454743
 -26854.5883098282 183867.293808397 549428.475194257
 -39503.3925362611 181623.394924232 549410.979499248
 -57879.9254450770 179278.999651036 548551.688097481
 -84393.3112731181 177108.449447172 545811.658126480
 -122232.354083960 175560.421529226 539108.328638664
 -175236.573474025 175256.132786613 524382.905173084
 -247029.155590120 176804.318874862 494081.804072593
 -0.000000000000000 0.000000000000000 -0.000000000000000
 -0.000000000000000 -0.000000000000000 0.000000000000000
 -0.000000000000000 -0.000000000000000 -0.000000000000000
 0.000000000000000 0.000000000000000 0.000000000000000
 0.000000000000000 -0.000000000000000 -0.000000000000000
 -0.000000000000000 0.000000000000000 0.000000000000000
 0.000000000000000 0.000000000000000 -0.000000000000000
 -0.000000000000000 0.000000000000000 0.000000000000000
 0.000000000000000 0.000000000000000 0.000000000000000
 0.000000000000000 -0.000000000000000 -0.000000000000000
 -0.000000000000000 0.000000000000000 0.000000000000000
 -0.000000000000000 0.000000000000000 0.000000000000000
 -0.000000000000000 0.000000000000000 -0.000000000000000
 -0.000000000000000 -0.000000000000000 0.000000000000000
 -0.000000000000000 0.000000000000000 0.000000000000000
 0.000000000000000 0.000000000000000 -0.000000000000000
 -0.000000000000000 0.000000000000000 -0.000000000000000
 -0.000000000000000 0.000000000000000 0.000000000000000
 0.000000000000000 -0.000000000000000 0.000000000000000
 0.000000000000000 0.000000000000000 -0.000000000000000
 -0.000000000000000 -0.000000000000000 0.000000000000000
 -0.000000000000000 0.000000000000000 -0.000000000000000
 -0.000000000000000 -0.000000000000000 -0.000000000000000
 -0.000000000000000 0.000000000000000 -0.000000000000000
 0.000000000000000 -0.000000000000000 0.000000000000000
 271746.428562819 106297.271107718 501253.198212645
 197569.935431645 106503.207643407 534811.356812102
 141579.437058793 108734.790512978 551844.188457407
 100518.564102530 112135.768791050 560108.549861905
 70885.5048698026 115946.620330402 563854.259922997
 49715.0699714963 119670.691321819 565338.250480442
 34700.3329042191 123039.851933503 565735.876299637
 24113.6841783309 125941.537391442 565647.645973028
 16687.1824857832 128356.720723729 565372.523373516
 11501.6941780559 130316.954541074 565053.273939877
 7896.74077208362 131877.239104753 564753.074618710
 5400.98705409429 133099.931895723 564495.560184662
 3680.06474034211 134045.819178328 564285.544280835
 2498.03793100470 134769.668423070 564119.576224430
 1689.24615062027 135318.455386367 563991.189717792
 1137.90786245759 135731.124945608 563893.400286523
 763.455089381147 136039.158475041 563819.797894442
 510.052503312117 136267.502507530 563764.940029800
 339.151146410500 136435.601969494 563724.410941838
 224.222660175319 136558.397390508 563694.734609376
 147.054609085720 136647.209740803 563673.237297102
 95.1508456475990 136710.484121189 563657.905539935
 59.9055833288322 136754.399988215 563647.257152188
 35.3184232519516 136783.338829459 563640.237182615
 17.0762396372620 136800.239229327 563636.136399363
 1.87409331258572 136806.840014767 563634.534536043
 -13.1168383325603 136803.832848319 563635.264285298
 -30.7173873557332 136790.923893614 563638.396666492
 -54.2117980778047 136766.815526259 563644.245275233
 -87.8984475997919 136729.106237817 563653.389754085
 -137.798215949366 136674.104799852 563666.718982778
 -212.633975867774 136596.564472307 563685.491529767
 -325.228668504281 136489.318242454 563711.415736832
 -494.524882293751 136342.837097245 563746.739429520
 -748.527598607635 136144.713750653 563794.338943011
 -1128.59048718600 135879.123494564 563857.774693106
 -1695.65757510859 135526.331176360 563941.254301602
 -2539.32954290152 135062.403613136 564049.376327742
 -3791.00895958756 134459.387949157 564186.406468116
 -5642.90097460518 133686.374400660 564354.596834470
 -8375.38748447409 132712.099740271 564550.574764576
 -12396.2987143401 131510.049389087 564757.858456051
 -18296.9098988726 130067.389948783 564931.586265155
 -26930.9658108100 128399.376106163 564967.541807532
 -39524.0728300684 126570.851210089 564639.413511736
 -57819.1557091262 124725.278855254 563471.871567306
 -84252.5386559623 123117.290180692 560485.184985820
 -122114.736546663 122131.730542313 553689.291491969
 -175527.001480093 122237.931080198 539117.946238706
 -248732.442477317 123746.421982499 509135.537068272
 0.000000000000000 -0.000000000000000 0.000000000000000
 0.000000000000000 -0.000000000000000 0.000000000000000
 0.000000000000000 0.000000000000000 0.000000000000000
 -0.000000000000000 -0.000000000000000 -0.000000000000000
 0.000000000000000 0.000000000000000 -0.000000000000000
 -0.000000000000000 0.000000000000000 0.000000000000000
 0.000000000000000 0.000000000000000 -0.000000000000000
 -0.000000000000000 0.000000000000000 0.000000000000000
 -0.000000000000000 0.000000000000000 0.000000000000000
 -0.000000000000000 0.000000000000000 0.000000000000000
 -0.000000000000000 -0.000000000000000 -0.000000000000000
 -0.000000000000000 0.000000000000000 0.000000000000000
 0.000000000000000 0.000000000000000 -0.000000000000000
 -0.000000000000000 0.000000000000000 0.000000000000000
 -0.000000000000000 0.000000000000000 0.000000000000000
 0.000000000000000 0.000000000000000 0.000000000000000
 0.000000000000000 -0.000000000000000 0.000000000000000
 0.000000000000000 0.000000000000000 -0.000000000000000
 0.000000000000000 0.000000000000000 -0.000000000000000
 -0.000000000000000 0.000000000000000 0.000000000000000
 0.000000000000000 0.000000000000000 -0.000000000000000
 0.000000000000000 -0.000000000000000 0.000000000000000
 0.000000000000000 -0.000000000000000 0.000000000000000
 -0.000000000000000 0.000000000000000 0.000000000000000
 0.000000000000000 0.000000000000000 -0.000000000000000
 284175.570235647 61720.6029740315 501831.458210590
 208500.120845975 63468.3069343238 537493.696355692
 150437.010169351 67093.8121070402 556117.906876098
 107320.227100687 71448.6776918209 565488.687164604
 75929.2154717540 75785.0837893685 569992.434434776
 53373.7322732171 79720.8652747471 572010.339367282
 37319.2406546151 83106.7678403125 572800.610523504
 25974.4344078771 85920.9950928168 573012.138928532
 18004.5776597385 88204.2370252608 572971.070608356
 12433.4504804018 90023.3177125815 572836.112319371
 8556.10978867044 91451.8340168481 572680.849199830
 5868.26899647944 92560.3506603875 572536.588267170
 4011.83042798323 93411.8817509535 572414.295387845
 2734.03898693914 94060.2749101824 572315.638188088
 1857.41648991068 94550.1655335137 572238.426009271
 1257.90829398864 94917.7166181637 572179.206838835
 849.154490190678 95191.7011128748 572134.441347389
 571.259375139436 95394.6698314087 572100.979400038
 382.815193367477 95544.0702192955 572076.204800076
 255.274087886032 95653.2359411110 572058.033147979
 168.987758163435 95732.2351048975 572044.850169074
 110.430146517893 95788.5659680880 572035.434597333
 70.2511070091789 95827.7058171196 572028.885514193
 41.9005641989319 95853.5415764845 572024.559622739
 20.6507145268453 95868.6838780168 572022.023199321
 2.87266113772185 95874.6862023641 572021.017566091
 -14.5355774673246 95872.1846304286 572021.436663790
 -34.6388770509800 95860.9579156579 572023.317311139
 -60.9602693515858 95839.9149303508 572026.841144704
 -98.0521125338174 95807.0214635445 572032.346134436
 -152.217702884824 95759.1514883794 572040.349744663
 -232.508268866744 95691.8742898264 572051.580834111
 -352.132582538057 95599.1710045496 572067.019243276
 -530.485056670231 95473.0894413635 572087.937102441
 -796.092648698021 95303.3605123667 572115.928559540
 -1190.89392155097 95077.0085191038 572152.902835182
 -1776.46078958014 94778.0415963185 572200.984810608
 -2643.02420765436 94387.3437156475 572262.215919715
 -3922.56435108777 93883.0065966228 572337.832544110
 -5807.73296787701 93241.4429340608 572426.679634474
 -8579.16652491925 92439.8098040445 572521.859377552
 -12644.7836544862 91460.4712536614 572603.782422357
 -18596.0606055024 90298.4525751407 572625.860394457
 -27287.9862082329 88972.9344861429 572485.093899940
 -39950.8542085624 87543.5218028209 571961.590527166
 -58341.2167789680 86130.6217129021 570594.267784122
 -84929.3173185147 84935.2138800428 567426.665308357
 -123079.883396122 84243.1717166594 560494.808470439
 -177051.025219410 84376.0784180687 545832.952339398
 -251258.307663661 85503.0989471384 515711.627656803
 -0.000000000000000 0.000000000000000 -0.000000000000000
 0.000000000000000 0.000000000000000 -0.000000000000000
 -0.000000000000000 0.000000000000000 0.000000000000000
 0.000000000000000 0.000000000000000 -0.000000000000000
 0.000000000000000 0.000000000000000 0.000000000000000
 -0.000000000000000 0.000000000000000 0.000000000000000
 0.000000000000000 0.000000000000000 0.000000000000000
 0.000000000000000 0.000000000000000 0.000000000000000
 -0.000000000000000 -0.000000000000000 0.000000000000000
 -0.000000000000000 -0.000000000000000 0.000000000000000
 -0.000000000000000 -0.000000000000000 -0.000000000000000
 0.000000000000000 0.000000000000000 0.000000000000000
 -0.000000000000000 -0.000000000000000 0.000000000000000
 0.000000000000000 0.000000000000000 -0.000000000000000
 0.000000000000000 0.000000000000000 0.000000000000000
 0.000000000000000 0.000000000000000 -0.000000000000000
 -0.000000000000000 -0.000000000000000 0.000000000000000
 0.000000000000000 -0.000000000000000 -0.000000000000000
 0.000000000000000 -0.000000000000000 -0.000000000000000
 0.000000000000000 0.000000000000000 -0.000000000000000
 0.000000000000000 -0.000000000000000 0.000000000000000
 0.000000000000000 -0.000000000000000 0.000000000000000
 -0.000000000000000 0.000000000000000 -0.000000000000000
 0.000000000000000 0.000000000000000 0.000000000000000
 -0.000000000000000 0.000000000000000 -0.000000000000000
 303454.121146822 25319.4674343646 493633.994907006
 225874.296144265 29466.2977595804 533397.168756712
 164312.438769792 35472.0173910880 555106.438845497
 117669.954000137 41534.2644483963 566417.413929283
 83360.7214907238 46886.9059930423 572059.969023306
 58600.1560341025 51330.3226663129 574744.482085519
 40955.4899623055 54904.0925772209 575941.132808050
 28491.9660053913 57727.0582178157 576416.337921354
 19745.1613832162 59931.0257971954 576557.369867775
 13637.7519720870 61636.8208759994 576554.346123111
 9391.02513827126 62947.5346047626 576497.542522112
 6448.65827837816 63948.1959853494 576427.829859583
 4416.50001569539 64707.6015432286 576362.230572176
 3017.04814596978 65280.6871920035 576306.627846865
 2055.90942662171 65710.8604798250 576261.968250058
 1397.47590774169 66032.1049865424 576227.219221839
 947.486233676366 66270.7989092966 576200.731934419
 640.624825523995 66447.2514303881 576180.833052593
 431.750533406000 66576.9699241111 576166.053032631
 289.732008427045 66671.6980530735 576155.188064885
 193.120252924349 66740.2443783684 576147.292352297
 127.126199326139 66789.1393219143 576141.644656561
 81.5020008477389 66823.1416561786 576137.710184485
 49.0511485740393 66845.6240665670 576135.105801700
 24.5668028930529 66858.8546242989 576133.572146945
 4.04896315173715 66864.1921294381 576132.953227364
 -15.9051720803032 66862.2118535407 576133.182843236
 -38.6298126695428 66852.7619187715 576134.278386185
 -67.9103437975468 66834.9629206681 576136.340738525
 -108.576460595028 66807.1495342568 576139.560334351
 -167.247740147444 66766.7665968857 576144.227521539
 -253.349832155731 66710.2008458368 576150.748430453
 -380.546656547708 66632.5701961440 576159.661702638
 -568.792218430308 66527.4713152018 576171.651537818
 -847.298620421548 66386.7032174580 576187.545614243
 -1258.84270712239 66200.0077476365 576208.273360641
 -1866.01136947527 65954.8926555135 576234.735274062
 -2760.26088573275 65636.6428159706 576267.483101113
 -4075.04620236051 65228.7039525543 576306.003941585
 -6004.81659451291 64713.7100992476 576347.185212921
 -8832.46176241736 64075.5223532595 576382.091198514
 -12968.8765770561 63302.8067730487 576389.245991789
 -19009.7705535488 62394.7379337978 576320.679224400
 -27816.6370258978 61369.4155990263 576072.937685501
 -40630.3581136594 60275.1884764315 575426.863861678
 -59225.0351401343 59203.9101425616 573922.723227162
 -86098.8705179416 58302.3095012793 570603.036446838
 -124655.145779234 57771.2033689429 563492.309345977
 -179183.967452371 57828.4713898295 548588.164021740
 -254056.381998733 58584.0094414325 518095.810254705
 -0.000000000000000 -0.000000000000000 0.000000000000000
 0.000000000000000 -0.000000000000000 -0.000000000000000
 0.000000000000000 0.000000000000000 0.000000000000000
 -0.000000000000000 0.000000000000000 0.000000000000000
 -0.000000000000000 -0.000000000000000 -0.000000000000000
 0.000000000000000 0.000000000000000 -0.000000000000000
 -0.000000000000000 -0.000000000000000 -0.000000000000000
 -0.000000000000000 0.000000000000000 0.000000000000000
 0.000000000000000 -0.000000000000000 0.000000000000000
 0.000000000000000 -0.000000000000000 0.000000000000000
 -0.000000000000000 -0.000000000000000 -0.000000000000000
 0.000000000000000 0.000000000000000 0.000000000000000
 -0.000000000000000 0.000000000000000 0.000000000000000
 -0.000000000000000 -0.000000000000000 -0.000000000000000
 0.000000000000000 -0.000000000000000 0.000000000000000
 -0.000000000000000 -0.000000000000000 0.000000000000000
 -0.000000000000000 -0.000000000000000 -0.000000000000000
 -0.000000000000000 -0.000000000000000 -0.000000000000000
 -0.000000000000000 0.000000000000000 -0.000000000000000
 -0.000000000000000 0.000000000000000 0.000000000000000
 0.000000000000000 0.000000000000000 0.000000000000000
 -0.000000000000000 0.000000000000000 -0.000000000000000
 -0.000000000000000 0.000000000000000 -0.000000000000000
 -0.000000000000000 -0.000000000000000 0.000000000000000
 -0.000000000000000 -0.000000000000000 0.000000000000000
 332754.630914227 -6599.21790515211 475006.111464028
 251606.000375570 1371.38842639034 522582.567513300
 183993.676887969 10930.4550107541 549933.497814512
 131743.944280099 19390.5948144490 564506.455213990
 93103.4168336870 26127.4239233014 571882.078310752
 65243.9340346821 31272.1392802769 575469.618986540
 45458.4956039360 35138.8636094353 577147.109012654
 31539.7271736843 38030.5671650350 577891.790537740
 21810.3491237583 40191.4745162969 578194.564180005
 15040.7543809990 41806.9421596359 578295.733422711
 10347.3913930148 43014.9514367604 578310.163704783
 7103.04872064010 43917.9227090402 578291.243893417
 4866.03509200153 44592.1298104306 578262.798095687
 3327.06748408748 45094.6408746466 578234.730871765
 2270.50999011664 45468.3198741897 578210.581598264
 1546.52919398240 45745.4345702876 578191.113269157
 1051.31350824102 45950.2925149636 578175.981304738
 713.105011558521 46101.1842215698 578164.485500979
 482.400676569157 46211.8391591347 578155.890060041
 325.097124645485 46292.5208676834 578149.545380410
 217.708678085461 46350.8550334719 578144.922005372
 144.038272723223 46392.4571256882 578141.608236959
 92.8547189377507 46421.4008039263 578139.295434416
 56.2645883363295 46440.5675812122 578137.760846869
 28.5520431986838 46451.8956120913 578136.852811533
 5.33338992909027 46456.5540975897 578136.479175058
 -17.1057670011113 46455.0554787261 578136.599367192
 -42.3694059267995 46447.3082291837 578137.220530815
 -74.5055460302190 46432.6249272860 578138.396745352
 -118.619908059874 46409.6830785251 578140.231471456
 -181.649398647109 46376.4470555532 578142.882133820
 -273.399905062769 46330.0485414270 578146.566066634
 -408.005019350079 46266.6310587538 578151.565233873
 -606.011381030130 46181.1738121262 578158.223962559
 -897.378054524686 46067.2985745340 578166.929800271
 -1325.83209374900 45917.1078637426 578178.053349216
 -1955.16445430775 45721.0938510871 578191.801143026
 -2878.36690014128 45468.2144832281 578207.883443053
 -4230.86277332163 45146.2606257460 578224.796209662
 -6209.64858254305 44742.7176142058 578238.298182485
 -9100.97163634559 44246.3719528556 578238.212922913
 -13320.2437263786 43649.9969324412 578201.737177318
 -19469.3868694430 42954.4783210098 578079.454545046
 -28418.5775218700 42174.6544626311 577766.114420525
 -41420.7796543907 41346.8660804730 577039.648272236
 -60266.1596168816 40537.3783674962 575434.367204569
 -87471.3412710342 39849.1325886031 571979.729613019
 -126451.269533864 39420.4891762684 564673.446751641
 -181472.381658515 39401.4394829311 549468.198590109
 -256781.350457615 39875.0484431169 518529.959181553
 0.000000000000000 -0.000000000000000 0.000000000000000
 0.000000000000000 -0.000000000000000 0.000000000000000
 0.000000000000000 -0.000000000000000 0.000000000000000
 0.000000000000000 -0.000000000000000 -0.000000000000000
 -0.000000000000000 0.000000000000000 -0.000000000000000
 0.000000000000000 0.000000000000000 -0.000000000000000
 -0.000000000000000 -0.000000000000000 -0.000000000000000
 0.000000000000000 -0.000000000000000 0.000000000000000
 0.000000000000000 -0.000000000000000 0.000000000000000
 -0.000000000000000 -0.000000000000000 0.000000000000000
 0.000000000000000 0.000000000000000 -0.000000000000000
 0.000000000000000 0.000000000000000 0.000000000000000
 0.000000000000000 -0.000000000000000 -0.000000000000000
 0.000000000000000 -0.000000000000000 0.000000000000000
 -0.000000000000000 0.000000000000000 0.000000000000000
 -0.000000000000000 0.000000000000000 0.000000000000000
 0.000000000000000 -0.000000000000000 0.000000000000000
 0.000000000000000 -0.000000000000000 -0.000000000000000
 0.000000000000000 -0.000000000000000 -0.000000000000000
 0.000000000000000 0.000000000000000 0.000000000000000
 0.000000000000000 -0.000000000000000 0.000000000000000
 -0.000000000000000 -0.000000000000000 -0.000000000000000
 -0.000000000000000 -0.000000000000000 0.000000000000000
 0.000000000000000 0.000000000000000 0.000000000000000
 -0.000000000000000 0.000000000000000 -0.000000000000000
 377484.692945430 -36300.7417542509 438847.995027875
 287741.286510622 -22042.2656686065 503109.422055885
 209743.044068518 -7857.73247685862 540690.402638325
 149233.764843186 3313.11220382246 560462.582799471
 104766.098435729 11482.8412500914 570343.939194045
 72974.3936635518 17310.2997241742 575130.499445905
 50580.3658289381 21446.1525352690 577392.145022813
 34940.7706426069 24391.7905842475 578432.522511481
 24076.6769688882 26503.8410981616 578893.651747175
 16557.2832117329 28029.1223127690 579085.679908442
 11366.7877125772 29137.6791978085 579156.103125973
 7791.48340266564 29947.4013452310 579173.934098431
 5333.13781559906 30540.9284303146 579170.794612137
 3645.44824075085 30976.9118291071 579160.721769576
 2488.46883612985 31297.4652320974 579149.614687688
 1696.34453428840 31533.1227234019 579139.693499359
 1154.65820780553 31706.1906082426 579131.577658771
 784.599816765508 31833.0474897138 579125.238174477
 531.951313441027 31925.7504177411 579120.422268171
 359.438524782138 31993.1804762525 579116.833814180
 241.432377510611 32041.8591768373 579114.203737828
 160.272058154019 32076.5486538728 579112.311507296
 103.716008514465 32100.6841147300 579110.987050285
 63.1657202403759 32116.6871346079 579110.105608242
 32.3988618697188 32126.1859666596 579109.581275901
 6.65237104586520 32130.1694047872 579109.361148450
 -18.0862438672622 32129.0848694429 579109.421075447
 -45.6800923124408 32122.8894077498 579109.763248235
 -80.4236352367856 32111.0610468240 579110.415456747
 -127.681211860971 32092.5753293993 579111.431683260
 -194.685628621354 32065.8507059486 579112.893411993
 -291.601134497353 32028.6620298972 579114.910684704
 -433.010760087118 31978.0344768450 579117.620015726
 -640.031719646004 31910.1195167030 579121.174394295
 -943.359925093856 31820.0683730315 579125.714608484
 -1387.67537228187 31701.9331233948 579131.299269260
 -2038.00881186994 31548.6299756744 579137.747402758
 -2988.96829399124 31352.0367150920 579144.296235708
 -4378.09812957335 31103.3064808755 579148.872555861
 -6405.19271388685 30793.5470617308 579146.553961650
 -9360.21626386825 30415.0170732675 579126.336033794
 -13663.5452741530 29963.0535147831 579064.351307013
 -19923.7298834430 29438.9339631290 578909.659752406
 -29019.6785474204 28853.8061846964 578554.505751757
 -42215.3882687493 28233.6240307280 577772.207247294
 -61313.5151811617 27624.5433512681 576088.133414292
 -88840.7049096182 27097.2685219415 572514.687313620
 -128207.832535392 26746.6719189997 565019.793651368
 -183635.525645404 26677.9240851835 549514.587693031
 -259232.223801713 26958.3259723655 518142.743656211
 197771.301031993 227301.551773935 495601.167320330
 119093.501614618 225444.172836976 520952.649294560
 52531.9786238740 223331.034595329 532694.696996733
 -8099.42651272342 219750.042230955 536697.604084142
 -70314.2370318534 213618.772359300 534624.099874233
 -141931.561938140 203551.769543812 524234.784081887
 -230039.500754440 187310.275500626 498394.109901519
 -337677.655993855 161107.270642665 443190.983649901
 -455600.003387330 119577.453999847 338422.619528275
 -551503.719939559 58986.0059408339 169600.406827273
 -578116.306038553 -14873.9661939740 -44275.2958431565
 -518599.651516917 -84979.4714190785 -245423.900392498
 -408300.564694861 -137808.109545409 -388200.429950017