# OOMMF OVF 2.0
#
# Segment count: 1
#
# Begin: Segment
# Begin: Header
#
# Title: Oxs_MinDriver::Magnetization
# Desc: Oxs vector field output
# Desc:  MIF source file: C:/Users/Victor H. González/Documents/GitHub/Intro-to-magnetism-in-python/domain_wall_conversion_thin_film/drive-19/domain_wall_conversion_thin_film.mif
# Desc:  Iteration: 1164, State id: 2368
# Desc:  Stage: 0, Stage iteration: 1164
# Desc:  Stage simulation time: -1 s
# Desc:  Total simulation time: -2 s
# meshunit: m
# meshtype: rectangular
# xbase: 1.0000000000000001e-09
# ybase: 1.0000000000000001e-09
# zbase: 1.0000000000000001e-09
# xnodes: 225
# ynodes: 25
# znodes: 1
# xstepsize: 2.0000000000000001e-09
# ystepsize: 2.0000000000000001e-09
# zstepsize: 2.0000000000000001e-09
# xmin: 0
# ymin: 0
# zmin: 0
# xmax: 4.5000000000000003e-07
# ymax: 5.0000000000000004e-08
# zmax: 2.0000000000000001e-09
# valuedim: 3
# valuelabels: Magnetization_x Magnetization_y Magnetization_z
# valueunits: A/m A/m A/m
#
# End: Header
#
# Begin: Data Text
 0.000000000000000 -0.000000000000000 -0.000000000000000
 -0.000000000000000 0.000000000000000 0.000000000000000
 0.000000000000000 0.000000000000000 -0.000000000000000
 0.000000000000000 0.000000000000000 0.000000000000000
 0.000000000000000 0.000000000000000 0.000000000000000
 0.000000000000000 -0.000000000000000 0.000000000000000
 -0.000000000000000 -0.000000000000000 0.000000000000000
 -0.000000000000000 -0.000000000000000 -0.000000000000000
 -0.000000000000000 0.000000000000000 -0.000000000000000
 -0.000000000000000 -0.000000000000000 -0.000000000000000
 0.000000000000000 -0.000000000000000 -0.000000000000000
 0.000000000000000 0.000000000000000 0.000000000000000
 0.000000000000000 0.000000000000000 -0.000000000000000
 0.000000000000000 0.000000000000000 0.000000000000000
 0.000000000000000 0.000000000000000 -0.000000000000000
 -0.000000000000000 0.000000000000000 -0.000000000000000
 0.000000000000000 -0.000000000000000 -0.000000000000000
 -0.000000000000000 -0.000000000000000 0.000000000000000
 0.000000000000000 -0.000000000000000 -0.000000000000000
 -0.000000000000000 -0.000000000000000 -0.000000000000000
 0.000000000000000 -0.000000000000000 0.000000000000000
 0.000000000000000 -0.000000000000000 0.000000000000000
 0.000000000000000 0.000000000000000 -0.000000000000000
 -0.000000000000000 -0.000000000000000 0.000000000000000
 0.000000000000000 -0.000000000000000 0.000000000000000
 262325.046833663 235026.967566324 460812.211557261
 191281.339539492 235901.643645160 494127.375956331
 136686.494717017 238915.200500750 510525.542095262
 96567.9018808766 242877.463108469 517769.425748875
 67735.6093274834 247093.145001579 520343.026207005
 47259.0564267813 251141.062996646 520667.598437396
 32821.4982926947 254789.044603898 520005.088436311
 22695.5453072236 257935.349423523 518993.514160796
 15625.8741206826 260562.262707663 517941.250829307
 10711.4355709859 262701.185241961 516984.866722884
 7309.98456079108 264408.269724484 516173.256791773
 4966.03765180612 265748.613905164 515512.378782047
 3357.99442373964 266786.784070276 514988.869509711
 2259.78056935844 267581.712142485 514582.277890207
 1513.18262995776 268184.432153323 514271.154770446
 1007.98543562971 268637.550197321 514035.845626882
 667.763912770510 268975.682423619 513859.549250673
 439.770754327331 269226.367918944 513728.497767894
 287.767297310405 269411.151593414 513631.724669625
 186.973698868064 269546.658081303 513560.672324154
 120.522197477860 269645.569464191 513508.765594836
 76.9852604482749 269717.467804009 513471.013431784
 48.6571103724675 269769.532040040 513443.665084480
 30.3658834953234 269807.103405685 513423.924286498
 18.6587112123374 269834.129537590 513409.721556325
 11.2409022674898 269853.513255093 513399.533752735
 6.59756025279461 269867.377640115 513392.246184260
 3.73328660990341 269877.269207804 513387.046536043
 1.99885750001052 269884.309480246 513383.345554154
 0.973878689365159 269889.308958941 513380.717312909
 0.388336354191801 269892.851868664 513378.854755480
 0.0696449709313122 269895.357255821 513377.537619000
 -0.0893057417508230 269897.125386942 513376.608064545
 -0.157259345339283 269898.371154573 513375.953126054
 -0.174732595425855 269899.247232516 513375.492542535
 -0.165899437849967 269899.862138973 513375.169264482
 -0.145902616870472 269900.293533814 513374.942464413
 -0.121922707244965 269900.595225658 513374.783853688
 -0.0987096061042832 269900.806075531 513374.673001862
 -0.0779771851648300 269900.952929407 513374.595795109
 -0.0602364490341352 269901.054918117 513374.542175675
 -0.0458059756481204 269901.125870305 513374.504873333
 -0.0344525510880453 269901.175184398 513374.478946977
 -0.0256075272225356 269901.209494742 513374.460908677
 -0.0188102634539519 269901.233318916 513374.448383368
 -0.0138343998041848 269901.249596229 513374.439825741
 -0.0100223094124775 269901.261037379 513374.433810676
 -0.00688829679701740 269901.268874953 513374.429690154
 -0.00474152958886150 269901.274265753 513374.426855996
 -0.00271011612930188 269901.278064957 513374.424858604
 -0.00133619220250684 269901.280560070 513374.423546825
 -0.000268687155440202 269901.282556798 513374.422497065
 0.000504975218221415 269901.283553008 513374.421973319
 0.000716379170734061 269901.284136925 513374.421666330
 0.000849247669384158 269901.284612221 513374.421416448
 0.000541756382655558 269901.284487962 513374.421481776
 0.000282282471744688 269901.284293086 513374.421584230
 -0.000152696612496188 269901.283789705 513374.421848877
 -0.000521803445518788 269901.283132902 513374.422194185
 -0.000885772777554678 269901.282890311 513374.422321724
 -0.00106770516233618 269901.282404070 513374.422577361
 -0.000817818939838831 269901.281997262 513374.422791236
 -0.000851975313609328 269901.281652286 513374.422972603
 -0.000721709308456204 269901.281548963 513374.423026924
 -0.000176717725633135 269901.281124815 513374.423249915
 1.02099803042468e-05 269901.280457087 513374.423600967
 -0.000234814974799211 269901.279762734 513374.423966016
 -0.000251604815913432 269901.278992357 513374.424371033
 -0.000122705047406558 269901.278688157 513374.424530964
 2.67082635254200e-06 269901.278216872 513374.424778736
 -2.09658357823784e-05 269901.278566553 513374.424594895
 -0.000137853632761390 269901.278687533 513374.424531291
 -7.99246592806412e-05 269901.278865827 513374.424437555
 -6.31243307020188e-05 269901.279239156 513374.424241282
 0.000434433045904653 269901.279602689 513374.424050158
 0.000930369063716899 269901.280365461 513374.423649138
 0.00149927319338312 269901.280919729 513374.423357738
 0.00229665133784135 269901.281985140 513374.422797609
 0.00272136308770019 269901.282690581 513374.422426731
 0.00350805552595055 269901.283740170 513374.421874920
 0.00383215583525391 269901.284549655 513374.421449341
 0.00357527978724294 269901.285473718 513374.420963525
 0.00360291639522916 269901.286547368 513374.420399065
 0.00342713241611838 269901.287413567 513374.419943670
 0.00311603803946865 269901.288885992 513374.419169557
 0.00309220112521669 269901.289845590 513374.418665059
 0.00313559647321717 269901.291354744 513374.417871636
 0.00327025358329731 269901.292238069 513374.417407238
 0.00352562960994096 269901.293099256 513374.416954477
 0.00348323289992839 269901.293748233 513374.416613284
 0.00354658462011998 269901.293436202 513374.416777331
 0.00352075104013292 269901.293949353 513374.416507548
 0.00311284781314324 269901.293484715 513374.416751826
 0.00302086415287096 269901.293221368 513374.416890278
 0.00306340061734760 269901.292839214 513374.417091192
 0.00312078802999122 269901.291742538 513374.417667758
 0.00338886983447056 269901.291350293 513374.417873976
 0.00340632752541905 269901.290099785 513374.418531418
 0.00325785136631887 269901.288958254 513374.419131566
 0.00297276448756898 269901.287941572 513374.419666076
 0.00246687359263634 269901.286670205 513374.420334484
 0.00192771604952447 269901.286073746 513374.420648066
 0.000942172768681915 269901.285210329 513374.421101999
 -7.76758967014511e-05 269901.284437090 513374.421508521
 -0.00105833790326190 269901.283737295 513374.421876431
 -0.00233547385198317 269901.282817364 513374.422360076
 -0.00360899942533307 269901.282480175 513374.422537349
 -0.00516422899687882 269901.282479284 513374.422537817
 -0.00653753941602973 269901.282789773 513374.422374582
 -0.00745725847703801 269901.283349683 513374.422080214
 -0.00794509808854839 269901.283329739 513374.422090699
 -0.00805825673801697 269901.282716419 513374.422413146
 -0.00849887750909622 269901.282328935 513374.422616862
 -0.00843422289674992 269901.282316189 513374.422623563
 -0.00770764588412165 269901.282208218 513374.422680328
 -0.00705442061601992 269901.281789960 513374.422900223
 -0.00637062770412690 269901.281327320 513374.423143451
 -0.00635980493982217 269901.281602928 513374.422998553
 -0.00668377161886075 269901.282549303 513374.422501006
 -0.00641814638764031 269901.283887674 513374.421797371
 -0.00494763029508006 269901.285167445 513374.421124545
 -0.00176843681372839 269901.285259651 513374.421076068
 0.000895197098046366 269901.284743386 513374.421347489
 0.00204645173866973 269901.284279614 513374.421591313
 0.00256171420386738 269901.283850674 513374.421816824
 0.00209232878316723 269901.283805008 513374.421840832
 0.00179525156551013 269901.284084132 513374.421694086
 0.00158242724121573 269901.285188343 513374.421113558
 0.00113536225249357 269901.286856250 513374.420236673
 0.00214169150611601 269901.287737023 513374.419773616
 0.00371157939240174 269901.287414237 513374.419943317
 0.00524214710518559 269901.286317121 513374.420520115
 0.00645979743878802 269901.285143128 513374.421137329
 0.00643281929401161 269901.284321970 513374.421569045
 0.00642448254455705 269901.283715099 513374.421888100
 0.00631258195592170 269901.282935391 513374.422298024
 0.00546515553701087 269901.282322490 513374.422620251
 0.00396873755213830 269901.282421319 513374.422568292
 0.00209631172604468 269901.283551450 513374.421974137
 0.00141008068761407 269901.285813302 513374.420784993
 0.00100266315736604 269901.287739158 513374.419772493
 0.000896609663308802 269901.288076349 513374.419595218
 0.00235756571415447 269901.287005004 513374.420158467
 0.00291488740044215 269901.285208437 513374.421102994
 0.00234787497027571 269901.284060749 513374.421706379
 0.00146329879177199 269901.284016137 513374.421729833
 -8.27685178969616e-05 269901.284870021 513374.421280913
 7.83130217740546e-05 269901.286226703 513374.420567651
 0.00152301050471913 269901.286689287 513374.420324452
 0.00225889624111516 269901.286057977 513374.420656357
 0.00320244722619823 269901.284643735 513374.421399880
 0.00440679092230150 269901.282195532 513374.422686998
 0.00595419796363533 269901.278319216 513374.424724930
 0.00797881664687169 269901.271671487 513374.428219904
 0.0100489982490480 269901.262491526 513374.433046174
 0.0130630828435479 269901.251782485 513374.438676340
 0.0171610248125061 269901.237420253 513374.446227134
 0.0227746198421054 269901.216520480 513374.457214970
 0.0309823997925481 269901.187093094 513374.472686106
 0.0417602530454335 269901.145359460 513374.494627119
 0.0564484105320545 269901.084250243 513374.526754629
 0.0755911747472400 269900.994467386 513374.573956980
 0.0976797613976146 269900.865384617 513374.641820791
 0.122394152153734 269900.680794442 513374.738866923
 0.147836846019271 269900.414752781 513374.878735077
 0.169963547077288 269900.032814635 513375.079534087
 0.183300515593301 269899.489483269 513375.365182862
 0.175069161246152 269898.717635948 513375.770969414
 0.122230919930136 269897.618706748 513376.348711559
 -0.0121711416998349 269896.055619443 513377.170471249
 -0.290667202795723 269893.837711421 513378.336478388
 -0.816684020083484 269890.695329915 513379.988481893
 -1.75685744202551 269886.250759826 513382.325024652
 -3.37527985362384 269879.979021529 513385.622034691
 -6.08628209810696 269871.150153327 513390.263131156
 -10.5370538908449 269858.752851664 513396.779692194
 -17.7300977824213 269841.390914160 513405.905142466
 -29.2092541634890 269817.143645466 513418.648026950
 -47.3419536678723 269783.383393943 513436.387299591
 -75.7367113554956 269736.533118464 513460.998484970
 -119.868028294394 269671.750750555 513495.016995088
 -188.010985128566 269582.529980986 513541.842677810
 -292.621100350795 269460.197301406 513605.993387129
 -452.372401702189 269293.295713065 513693.406851992
 -695.164358937258 269066.862405718 513811.775168355
 -1062.53108532348 268761.619996221 513970.877234012
 -1616.08580204979 268353.144709915 514182.825453146
 -2446.91575494110 267811.149486961 514462.049925707
 -3689.21831290149 267099.118885928 514824.679243916
 -5540.00221229327 266174.695282723 515286.658052232
 -8287.41497779082 264991.453846849 515859.329799432
 -12351.2039505664 263502.999921796 516540.043746064
 -18339.9323177344 261670.670501885 517293.057252535
 -27130.5354554400 259476.443932873 518011.495132928
 -39975.3803926232 256942.731687649 518442.283764889
 -58636.3467244416 254160.189780011 518038.972253825
 -85523.3829280772 251323.270714645 515676.608515289
 -123745.683380691 248772.475055414 509116.157177760
 -176790.843158056 247054.722123186 494073.842711896
 -247084.409818101 247103.624982289 462913.699241503
 -0.000000000000000 -0.000000000000000 -0.000000000000000
 -0.000000000000000 -0.000000000000000 -0.000000000000000
 0.000000000000000 0.000000000000000 -0.000000000000000
 0.000000000000000 -0.000000000000000 0.000000000000000
 -0.000000000000000 -0.000000000000000 -0.000000000000000
 -0.000000000000000 -0.000000000000000 -0.000000000000000
 0.000000000000000 0.000000000000000 0.000000000000000
 0.000000000000000 0.000000000000000 -0.000000000000000
 0.000000000000000 0.000000000000000 -0.000000000000000
 0.000000000000000 0.000000000000000 -0.000000000000000
 -0.000000000000000 0.000000000000000 0.000000000000000
 -0.000000000000000 -0.000000000000000 0.000000000000000
 0.000000000000000 -0.000000000000000 -0.000000000000000
 -0.000000000000000 -0.000000000000000 -0.000000000000000
 -0.000000000000000 0.000000000000000 0.000000000000000
 -0.000000000000000 0.000000000000000 0.000000000000000
 -0.000000000000000 -0.000000000000000 -0.000000000000000
 0.000000000000000 0.000000000000000 -0.000000000000000
 0.000000000000000 -0.000000000000000 0.000000000000000
 -0.000000000000000 -0.000000000000000 -0.000000000000000
 -0.000000000000000 0.000000000000000 0.000000000000000
 0.000000000000000 -0.000000000000000 -0.000000000000000
 0.000000000000000 0.000000000000000 -0.000000000000000
 0.000000000000000 -0.000000000000000 0.000000000000000
 -0.000000000000000 0.000000000000000 0.000000000000000
 264572.829638392 163119.529532705 489686.876383433
 191988.619907171 162668.968135273 522569.781590885
 137141.322798417 164529.180386695 539001.304620298
 97025.6160736552 167767.179218325 546662.787651267
 68194.6680092373 171564.538231571 549831.880192935
 47683.6914748502 175372.212188630 550791.115359895
 33190.0476733350 178877.418568151 550727.963573520
 23002.1996291560 181934.228978108 550246.158676607
 15874.1754545819 184501.906176354 549642.663164832
 10908.9270536269 186599.902358483 549055.071691668
 7465.14526167487 188277.947816385 548539.593805472
 5086.84136408155 189597.440753610 548112.155041847
 3451.37039552646 190620.622464141 547769.902727209
 2331.50831664746 191404.839321578 547502.284518750
 1567.97185554002 191999.982033174 547296.581721027
 1049.61646463965 192447.806920314 547140.512041321
 699.239296882442 192782.294112997 547023.306762094
 463.454181458285 193030.508566694 546936.018170960
 305.506900543026 193213.645768607 546871.459992508
 200.203440971491 193348.075128246 546823.995233187
 130.348118284196 193446.297866639 546789.276459460
 84.2543309950974 193517.766661250 546763.995602902
 54.0146911846996 193569.572497494 546745.660874918
 34.3007374658869 193606.994748843 546732.412069909
 21.5387490190204 193633.941055363 546722.869841248
 13.3424585807605 193653.286985108 546716.017930554
 8.12630083664446 193667.138210589 546711.111567420
 4.84217012911709 193677.030074372 546707.607408315
 2.80123506619586 193684.077670729 546705.110684903
 1.55269401272338 193689.087167510 546703.335923429
 0.804938570223938 193692.640552352 546702.076999173
 0.368909638740930 193695.155942315 546701.185808433
 0.124709315172940 193696.932826770 546700.556258621
 -0.00416846495338869 193698.185787853 546700.112330787
 -0.0655340105046880 193699.067699484 546699.799864922
 -0.0881982482868707 193699.687599800 546699.580230067
 -0.0907402895184402 193700.122566813 546699.426117856
 -0.0828677276456175 193700.427088986 546699.318223041
 -0.0712579324099359 193700.640012699 546699.242782232
 -0.0584710189661270 193700.788619485 546699.190129441
 -0.0466167372860467 193700.891939922 546699.153522005
 -0.0362564684983222 193700.964168453 546699.127930721
 -0.0278404245318508 193701.013928506 546699.110300235
 -0.0212149578274055 193701.048934100 546699.097897398
 -0.0159157188316583 193701.072974971 546699.089379473
 -0.0118360739667046 193701.089923158 546699.083374557
 -0.00854576038121859 193701.101216133 546699.079373340
 -0.00599101309417464 193701.109095801 546699.076581492
 -0.00405293091047471 193701.114490065 546699.074670249
 -0.00248883262167797 193701.118281340 546699.073326961
 -0.00115820055227975 193701.121066196 546699.072340258
 -0.000213248807638347 193701.122795444 546699.071727568
 0.000605577919004669 193701.124286357 546699.071199322
 0.000788286779151225 193701.124565896 546699.071100278
 0.000967503075608143 193701.125216481 546699.070869769
 0.000698275598398311 193701.124890794 546699.070985164
 0.000689528351009311 193701.124714571 546699.071047601
 0.000128221009955941 193701.124091218 546699.071268462
 -0.000195268628879907 193701.123621686 546699.071434822
 -0.000199663245973247 193701.123448062 546699.071496339
 -0.000452118654350161 193701.122717665 546699.071755126
 -0.000176767748249217 193701.122495388 546699.071833881
 -0.000164963826234890 193701.121960868 546699.072023267
 8.45672055105235e-05 193701.121668413 546699.072126887
 8.13630097209658e-06 193701.121323533 546699.072249081
 -2.94224165835630e-05 193701.121136627 546699.072315304
 0.000216119587412593 193701.120375266 546699.072585062
 0.000205290724323418 193701.119650278 546699.072841932
 -4.59100790372581e-05 193701.119209991 546699.072997931
 -2.09356075612833e-05 193701.119147229 546699.073020168
 -6.50997192343949e-05 193701.119193931 546699.073003621
 -5.89590471532380e-06 193701.119176756 546699.073009706
 -0.000192081888476608 193701.119258194 546699.072980852
 -0.000110345749619421 193701.119457645 546699.072910184
 0.000386627101940850 193701.120158146 546699.072661989
 0.000693116231621088 193701.120627608 546699.072495654
 0.00151969951208556 193701.121576389 546699.072159492
 0.00198856829843734 193701.122366478 546699.071879555
 0.00251363315591551 193701.123248408 546699.071567078
 0.00303700047296269 193701.124211788 546699.071225743
 0.00329578771864663 193701.125053885 546699.070927379
 0.00337196617396879 193701.126100407 546699.070556585
 0.00315326709462045 193701.127035685 546699.070225207
 0.00305029525671981 193701.128390713 546699.069745106
 0.00310962309471535 193701.129823481 546699.069237462
 0.00332631314104211 193701.130973890 546699.068829860
 0.00338171725439404 193701.132138012 546699.068417399
 0.00328804725441744 193701.132990675 546699.068115292
 0.00348197562255632 193701.133407797 546699.067967502
 0.00367360024741617 193701.134001212 546699.067757248
 0.00357605933364755 193701.134091075 546699.067725409
 0.00352073481321180 193701.134414854 546699.067610691
 0.00311624027376962 193701.134295065 546699.067653134
 0.00289214046924755 193701.133593624 546699.067901661
 0.00292900627826345 193701.133320824 546699.067998317
 0.00315228506248835 193701.132282279 546699.068366284
 0.00332421185763553 193701.131782527 546699.068543352
 0.00301204675360984 193701.130834332 546699.068879307
 0.00306422806875126 193701.129514092 546699.069347082
 0.00272805925643685 193701.128853831 546699.069581019
 0.00236128819539377 193701.127450750 546699.070078145
 0.00188083223699192 193701.126803637 546699.070307424
 0.000639036030030812 193701.126168801 546699.070532353
 -0.000220852039215144 193701.125215906 546699.070869973
 -0.00124500946460535 193701.124973885 546699.070955724
 -0.00239676769418903 193701.123821948 546699.071363867
 -0.00331549272625398 193701.123031052 546699.071644089
 -0.00473904737298144 193701.123086533 546699.071624432
 -0.00613209037807637 193701.122942179 546699.071675578
 -0.00713307514614612 193701.123456726 546699.071493268
 -0.00816431331327840 193701.123494877 546699.071479751
 -0.00844782144653569 193701.123190242 546699.071587687
 -0.00806595901451455 193701.122927941 546699.071680623
 -0.00799666689957509 193701.122437352 546699.071854444
 -0.00783739894611068 193701.122665579 546699.071773580
 -0.00726660294837727 193701.122584701 546699.071802236
 -0.00627915041505745 193701.122289589 546699.071906797
 -0.00585968092734225 193701.122180582 546699.071945420
 -0.00635211027536660 193701.123081629 546699.071626169
 -0.00607855407907867 193701.124839187 546699.071003448
 -0.00443411709084734 193701.125432953 546699.070793071
 -0.00180625255877324 193701.125742189 546699.070683506
 0.000782642883439551 193701.125231802 546699.070864341
 0.00207092926613476 193701.124553016 546699.071104842
 0.00218425226778237 193701.124537208 546699.071110443
 0.00213151909259459 193701.124029980 546699.071290159
 0.00206730418238196 193701.124633955 546699.071076164
 0.00157182181905628 193701.125948454 546699.070610424
 0.00131875827953326 193701.127469643 546699.070071451
 0.00188559835463070 193701.128437347 546699.069728583
 0.00330524687011399 193701.127800081 546699.069954373
 0.00496094625604781 193701.126861011 546699.070287095
 0.00580055489510897 193701.125338362 546699.070826586
 0.00606352063298202 193701.124591313 546699.071091273
 0.00614052945910855 193701.124377845 546699.071166907
 0.00611635408240953 193701.123258891 546699.071563364
 0.00545325370891150 193701.123152798 546699.071600954
 0.00379045304284530 193701.123521826 546699.071470203
 0.00242836165108885 193701.124457450 546699.071138702
 0.00155244832165570 193701.126483802 546699.070420745
 0.00106582835031734 193701.128079173 546699.069855488
 0.00147259651990446 193701.128655396 546699.069651326
 0.00215522347268455 193701.127301002 546699.070131202
 0.00288083523791475 193701.125613306 546699.070729170
 0.00277992349912537 193701.125055551 546699.070926789
 0.00129167803080412 193701.124632305 546699.071076749
 0.000125420099943484 193701.125361970 546699.070818221
 8.29689908488434e-05 193701.126796705 546699.070309880
 0.000909180593343174 193701.127114511 546699.070197278
 0.00195182324079569 193701.126418167 546699.070444000
 0.00275399962038025 193701.124967515 546699.070957981
 0.00408065242917835 193701.122615194 546699.071791432
 0.00553660020496111 193701.118541653 546699.073234730
 0.00690087871146308 193701.112094528 546699.075519013
 0.00873733702332475 193701.103236141 546699.078657630
 0.0106429162134571 193701.091730476 546699.082734206
 0.0136352128640008 193701.076713572 546699.088054848
 0.0183601006685628 193701.055671749 546699.095510181
 0.0244147825215898 193701.025946725 546699.106042058
 0.0333156098728513 193700.983877297 546699.120947680
 0.0450813865232910 193700.921858941 546699.142921401
 0.0585685240712366 193700.830970898 546699.175123925
 0.0737931271515615 193700.700744719 546699.221264307
 0.0887106834275243 193700.513920637 546699.287457807
 0.100046441345475 193700.244981793 546699.382745201
 0.103279390237761 193699.860277688 546699.519048987
 0.0895566932899413 193699.313919197 546699.712627713
 0.0440701414694936 193698.538212757 546699.987465007
 -0.0596683090104484 193697.434331458 546700.378574413
 -0.265192697246555 193695.865799093 546700.934307112
 -0.641158452861636 193693.643291144 546701.721735163
 -1.30044105186198 193690.498715893 546702.835830854
 -2.42252683649442 193686.057221144 546704.409377004
 -4.28657116715374 193679.798884329 546706.626524456
 -7.32773638085472 193671.001233718 546709.743124662
 -12.2190187251342 193658.665496112 546714.112794759
 -19.9953492319738 193641.417162368 546720.222014456
 -32.2406971911984 193617.369167728 546728.738331090
 -51.3660820487160 193583.944835157 546740.572542028
 -81.0285863163445 193537.646528088 546756.959544858
 -126.752197752054 193473.754642835 546779.562710865
 -196.846638494908 193385.948364256 546810.603615784
 -303.771429442103 193265.832739507 546853.020123711
 -466.143676882004 193102.367018340 546910.649523290
 -711.687808949145 192881.206937036 546988.421733929
 -1081.56062540227 192583.987884971 547092.531329879
 -1636.66326309612 192187.626872713 547230.515788729
 -2466.83093037370 191663.799956795 547411.090983077
 -3704.16763046342 190978.859425640 547643.455538955
 -5542.31167094699 190094.642443646 547935.497750935
 -8264.15557815368 188970.890214498 548289.801459155
 -12281.5039602550 187570.354635256 548695.294970240
 -18191.3384544426 185868.143988128 549110.287879989
 -26854.5618912686 183867.365199604 549428.452594315
 -39503.3698655613 181623.441532987 549410.965721452
 -57879.9066945860 179279.027992819 548551.680813190
 -84393.2946437017 177108.463474578 545811.656146015
 -122232.339478735 175560.426652278 539108.330281795
 -175236.560520248 175256.132117745 524382.909725480
 -247029.143882638 176804.314500619 494081.811491353
 -0.000000000000000 0.000000000000000 -0.000000000000000
 -0.000000000000000 -0.000000000000000 0.000000000000000
 -0.000000000000000 -0.000000000000000 -0.000000000000000
 0.000000000000000 0.000000000000000 0.000000000000000
 0.000000000000000 -0.000000000000000 -0.000000000000000
 -0.000000000000000 0.000000000000000 0.000000000000000
 0.000000000000000 0.000000000000000 -0.000000000000000
 -0.000000000000000 0.000000000000000 0.000000000000000
 0.000000000000000 0.000000000000000 0.000000000000000
 0.000000000000000 -0.000000000000000 -0.000000000000000
 -0.000000000000000 0.000000000000000 0.000000000000000
 -0.000000000000000 0.000000000000000 0.000000000000000
 -0.000000000000000 0.000000000000000 -0.000000000000000
 -0.000000000000000 -0.000000000000000 0.000000000000000
 -0.000000000000000 0.000000000000000 0.000000000000000
 0.000000000000000 0.000000000000000 -0.000000000000000
 -0.000000000000000 0.000000000000000 -0.000000000000000
 -0.000000000000000 0.000000000000000 0.000000000000000
 0.000000000000000 -0.000000000000000 0.000000000000000
 0.000000000000000 0.000000000000000 -0.000000000000000
 -0.000000000000000 -0.000000000000000 0.000000000000000
 -0.000000000000000 0.000000000000000 -0.000000000000000
 -0.000000000000000 -0.000000000000000 -0.000000000000000
 -0.000000000000000 0.000000000000000 -0.000000000000000
 0.000000000000000 -0.000000000000000 0.000000000000000
 271746.389381240 106297.329932605 501253.206979724
 197569.897769873 106503.263421236 534811.359617416
 141579.403079450 108734.842781496 551844.186876105
 100518.534478670 112135.819341780 560108.545057838
 70885.4786516258 115946.670559067 563854.252890405
 49715.0460812442 119670.745195505 565338.241177344
 34700.3100958512 123039.913963643 565735.864207910
 24113.6614469422 125941.615148639 565647.629629414
 16687.1570938968 128356.823273702 565372.500841001
 11501.6654961123 130317.095730474 565053.241961490
 7896.70822244680 131877.438530234 564753.028505340
 5400.94991567762 133100.215438582 564495.493684592
 3680.02484298075 134046.224627603 564285.448226552
 2497.99959914424 134770.248981912 564119.437696802
 1689.21687580141 135319.287161521 563990.990236940
 1137.90347499584 135732.316348174 563893.113519256
 763.503406044129 136040.862449142 563819.386689251
 510.201898326443 136269.935483631 563764.351814932
 339.482318465312 136439.071492759 563723.571018588
 224.868573358523 136563.337123210 563693.537649579
 148.231000603911 136654.229923839 563671.535090688
 97.2015782971673 136720.442959147 563655.489664483
 63.3738906585747 136768.499247789 563643.835766220
 41.0555465127619 136803.259301724 563635.402151841
 26.4057715606072 136828.322876267 563629.319111065
 16.8433799591563 136846.342200789 563624.944748336
 10.6405624477740 136859.262162938 563621.807817081
 6.64455660218299 136868.502130290 563619.564139199
 4.09134591675566 136875.094822689 563617.963163472
 2.47469584905694 136879.787751360 563616.823470537
 1.46248336857288 136883.121367746 563616.013862704
 0.837594843472468 136885.484541403 563615.439924390
 0.457640208456085 136887.156568962 563615.033836266
 0.231946970967677 136888.337042534 563614.747129345
 0.101840329280419 136889.169250491 563614.545005627
 0.0299114024600356 136889.754727727 563614.402806193
 -0.00712067073322853 136890.166255365 563614.302854868
 -0.0240211128676150 136890.454747589 563614.232786041
 -0.0297710362730704 136890.656964797 563614.183671548
 -0.0295901770335172 136890.798030527 563614.149409474
 -0.0265250160305354 136890.896363904 563614.125526220
 -0.0224436070054766 136890.964934287 563614.108871806
 -0.0182460613238542 136891.012463810 563614.097327802
 -0.0143635860306898 136891.045933314 563614.089198703
 -0.0112766429522609 136891.069022177 563614.083590860
 -0.00874878734529159 136891.085163224 563614.079670509
 -0.00666279077618673 136891.095937037 563614.077053756
 -0.00493924366305839 136891.103651984 563614.075179942
 -0.00333422176948240 136891.108658331 563614.073963996
 -0.00193309676537557 136891.112519399 563614.073026217
 -0.00103774694779743 136891.114887965 563614.072450937
 2.50173465961992e-05 136891.116691542 563614.072012882
 0.000382530419535513 136891.118055704 563614.071681553
 0.00105848110039092 136891.118616162 563614.071545429
 0.00116550513833270 136891.119020839 563614.071447141