# OOMMF OVF 2.0
#
# Segment count: 1
#
# Begin: Segment
# Begin: Header
#
# Title: Oxs_TimeDriver::Magnetization
# Desc: Oxs vector field output
# Desc:  MIF source file: C:/Users/Victor H. González/Documents/GitHub/Intro-to-magnetism-in-python/domain_wall_conversion_thin_film/drive-46/domain_wall_conversion_thin_film.mif
# Desc:  Iteration: 445, State id: 3148
# Desc:  Stage: 36, Stage iteration: 11
# Desc:  Stage simulation time: 2e-12 s
# Desc:  Total simulation time: 7.4e-11 s
# meshunit: m
# meshtype: rectangular
# xbase: 1.0000000000000001e-09
# ybase: 1.0000000000000001e-09
# zbase: 1.0000000000000001e-09
# xnodes: 125
# ynodes: 25
# znodes: 1
# xstepsize: 2.0000000000000001e-09
# ystepsize: 2.0000000000000001e-09
# zstepsize: 2.0000000000000001e-09
# xmin: 0
# ymin: 0
# zmin: 0
# xmax: 2.5000000000000004e-07
# ymax: 5.0000000000000004e-08
# zmax: 2.0000000000000001e-09
# valuedim: 3
# valuelabels: Magnetization_x Magnetization_y Magnetization_z
# valueunits: A/m A/m A/m
#
# End: Header
#
# Begin: Data Text
 0.000000000000000 -0.000000000000000 -0.000000000000000
 -0.000000000000000 0.000000000000000 0.000000000000000
 0.000000000000000 0.000000000000000 -0.000000000000000
 0.000000000000000 0.000000000000000 0.000000000000000
 0.000000000000000 0.000000000000000 0.000000000000000
 0.000000000000000 -0.000000000000000 0.000000000000000
 -0.000000000000000 -0.000000000000000 0.000000000000000
 -0.000000000000000 -0.000000000000000 -0.000000000000000
 -0.000000000000000 0.000000000000000 -0.000000000000000
 -0.000000000000000 -0.000000000000000 -0.000000000000000
 0.000000000000000 -0.000000000000000 -0.000000000000000
 0.000000000000000 0.000000000000000 0.000000000000000
 0.000000000000000 0.000000000000000 -0.000000000000000
 0.000000000000000 0.000000000000000 0.000000000000000
 0.000000000000000 0.000000000000000 -0.000000000000000
 -0.000000000000000 0.000000000000000 -0.000000000000000
 0.000000000000000 -0.000000000000000 -0.000000000000000
 -0.000000000000000 -0.000000000000000 0.000000000000000
 0.000000000000000 -0.000000000000000 -0.000000000000000
 -0.000000000000000 -0.000000000000000 -0.000000000000000
 0.000000000000000 -0.000000000000000 0.000000000000000
 0.000000000000000 -0.000000000000000 0.000000000000000
 0.000000000000000 0.000000000000000 -0.000000000000000
 -0.000000000000000 -0.000000000000000 0.000000000000000
 0.000000000000000 -0.000000000000000 0.000000000000000
 247162.582900742 -117142.411201494 511457.049136810
 184207.578404004 -106060.911348474 539646.783685832
 145287.783262528 -91659.6832767242 553976.499949476
 122879.166841349 -72932.1595191367 562122.415906225
 110366.758262385 -49264.7238498486 567267.278850676
 102752.780775849 -21034.3560864361 570437.921168342
 96696.0915310153 10531.8305655224 571785.752207559
 90274.4880239980 43728.9220914457 571260.271841763
 82697.0957967842 76806.5204555134 568912.953589821
 73927.5644358580 108228.251716158 564996.779412986
 64374.7820564834 136917.512790571 559919.174637218
 54615.2344484452 162197.630066208 554174.255056158
 45190.4994795953 183877.515068084 548221.559416602
 36549.0122603892 201987.790399936 542462.074464327
 28923.4420330397 216863.450668269 537153.309833620
 22472.1954978350 228835.321533675 532474.784424659
 17130.3668052650 238384.922129721 528468.711878314
 12881.5981864839 245867.664694933 525150.603051755
 9512.74931625763 251714.395357477 522445.567279756
 6968.14018666568 256203.145631894 520299.330376910
 5001.85423698972 259656.032932960 518607.487427350
 3589.49623796986 262264.292667770 517305.090162693
 2505.04623080994 264244.482958106 516302.796786522
 1771.69779581662 265722.202257348 515546.867233644
 1196.41616593018 266829.367443458 514976.365727673
 840.638379357796 267650.647452876 514550.701335807
 541.708593445479 268255.127508114 514236.223070104
 383.405997673635 268706.164881789 514000.826803189
 227.925791289969 269027.813733930 513832.641516064
 167.151410213711 269275.155306626 513703.088169615
 84.1161778375319 269440.558068588 513616.372979052
 68.3677141109059 269578.189879604 513544.150844981
 21.7714224300487 269658.554248798 513501.960703611
 24.6744481885967 269738.088953154 513460.186147935
 -2.98831949480545 269772.820735383 513441.939447436
 5.87014038118134 269821.869204628 513416.165371195
 -11.1231295644086 269832.573370607 513410.539650748
 -2.09349848015299 269865.501437408 513393.232453987
 -12.3126899591869 269864.000198690 513394.021434958
 -5.48149835259912 269888.045039254 513381.381737634
 -10.8813470929847 269880.837420477 513385.170680667
 -6.95088834716113 269899.506910928 513375.355973505
 -8.68793809694279 269890.191115742 513380.253480817
 -7.55389352514813 269905.116855397 513372.406580461
 -6.48433920266191 269895.683062282 513377.366293351
 -7.66625366231346 269907.610469515 513371.095555510
 -4.53528242462418 269899.125710351 513375.556410918
 -7.40378340324139 269908.428689787 513370.665374829
 -2.89610414040025 269901.404299931 513374.358483688
 -6.80287844637427 269908.339991129 513370.712017110
 -1.53754655045128 269902.938214003 513373.552046737
 -5.89429686091629 269907.760526553 513371.016685592
 -0.403444529487373 269903.921339375 513373.035175656
 -4.72882242619310 269906.918833487 513371.459221734
 0.561545134479162 269904.446694795 513372.758971550
 -3.38110887038411 269905.941685215 513371.972970463
 1.39851381570541 269904.570181461 513372.694047127
 -1.94406546637076 269904.900510491 513372.520375451
 2.12832091856673 269904.342256867 513372.813875411
 -0.520283636008612 269903.838602102 513373.078674350
 2.74952718495011 269903.823141470 513373.086795615
 0.785436328956497 269902.789494183 513373.630236928
 3.23743470286490 269903.090411532 513373.472021903
 1.86885733070600 269901.791862873 513374.154730951
 3.54020306041670 269902.244364273 513373.916823396
 2.61904020883836 269900.904001134 513374.621511924
 3.56408223275435 269901.415019013 513374.352844035
 2.89011913056147 269900.220454178 513374.980876973
 3.13056782644973 269900.774601820 513374.689539266
 2.42767690413652 269899.894560124 513375.152213798
 1.86773855907362 269900.560934291 513374.801878575
 0.694916653690265 269900.173512433 513375.005563648
 -1.04705242431317 269901.120451467 513374.507721162
 -3.52313700489570 269901.457034390 513374.330755153
 -7.47526167278004 269902.984288701 513373.527771128
 -13.0071647962532 269904.396081480 513372.785416898
 -21.6382407093175 269906.995862640 513371.418289128
 -34.0809625871816 269910.052519005 513369.810553441
 -53.0627280434533 269914.511575356 513367.464517751
 -81.0064539919704 269920.142305129 513364.500346424
 -123.128959454260 269927.696370875 513360.520074510
 -185.743116652499 269937.385143959 513355.406712675
 -279.609526668889 269949.942533875 513348.760926205
 -419.603877967258 269966.009938262 513340.216046434
 -628.916113783428 269986.515554124 513329.217835362
 -941.253087608544 270012.647072082 513314.995362255
 -1407.50819618811 270045.926789328 513296.421519935
 -2102.87194184335 270088.640802999 513271.569482262
 -3139.59697086172 270144.070220831 513237.103350277
 -4684.14114800338 270217.620740707 513186.609590446
 -6983.73765509181 270318.041481871 513107.575326822
 -10404.4331527008 270460.220937789 512974.674483110
 -15487.0864582242 270668.950095664 512736.257355716
 -23027.3475349282 270984.998759390 512285.927693587
 -34187.7136023263 271472.295181062 511403.943265763
 -50645.8377582276 272224.451393375 509635.994785831
 -74766.5656412753 273362.380190141 506046.410676916
 -109725.913265685 275006.753686710 498729.896221100
 -159337.559597023 277204.367274142 483910.405825095
 -226869.362678005 279859.710189931 454542.445642301
 -0.000000000000000 -0.000000000000000 -0.000000000000000
 -0.000000000000000 -0.000000000000000 -0.000000000000000
 0.000000000000000 0.000000000000000 -0.000000000000000
 0.000000000000000 -0.000000000000000 0.000000000000000
 -0.000000000000000 -0.000000000000000 -0.000000000000000
 -0.000000000000000 -0.000000000000000 -0.000000000000000
 0.000000000000000 0.000000000000000 0.000000000000000
 0.000000000000000 0.000000000000000 -0.000000000000000
 0.000000000000000 0.000000000000000 -0.000000000000000
 0.000000000000000 0.000000000000000 -0.000000000000000
 -0.000000000000000 0.000000000000000 0.000000000000000
 -0.000000000000000 -0.000000000000000 0.000000000000000
 0.000000000000000 -0.000000000000000 -0.000000000000000
 -0.000000000000000 -0.000000000000000 -0.000000000000000
 -0.000000000000000 0.000000000000000 0.000000000000000
 -0.000000000000000 0.000000000000000 0.000000000000000
 -0.000000000000000 -0.000000000000000 -0.000000000000000
 0.000000000000000 0.000000000000000 -0.000000000000000
 0.000000000000000 -0.000000000000000 0.000000000000000
 -0.000000000000000 -0.000000000000000 -0.000000000000000
 -0.000000000000000 0.000000000000000 0.000000000000000
 0.000000000000000 -0.000000000000000 -0.000000000000000
 0.000000000000000 0.000000000000000 -0.000000000000000
 0.000000000000000 -0.000000000000000 0.000000000000000
 -0.000000000000000 0.000000000000000 0.000000000000000
 235714.629027725 -243147.022383519 470869.556425503
 180021.729727389 -232602.518943253 499888.232515242
 147167.826514496 -217866.452387407 516987.272341520
 129789.721028056 -197451.751812124 529686.165594103
 121225.344793522 -170733.359141325 540883.107386440
 116401.792898047 -138253.031093114 551123.145951688
 111900.347616373 -101549.492634606 559969.653417923
 105873.424943272 -62706.9270129694 566796.841200947
 97667.2600218786 -23967.9575579775 571215.058739104
 87530.3863291565 12797.5635988553 573214.317541879
 76161.7303098863 46118.7867861991 573125.159403749
 64410.4963489516 75305.7678621058 571472.072184442
 53081.3795483215 99982.1244456309 568846.149619197
 42682.2951731935 120451.197263455 565747.055455482
 33643.0753255621 136949.929973225 562594.756608135
 25954.7540458189 150177.586139510 559618.658877392
 19762.4878764119 160496.686086965 557001.129108404
 14730.6613436854 168601.849364028 554757.986880232
 10931.3494636709 174775.007982582 552932.366735382
 7901.48039929705 179561.710294542 551448.237646652
 5763.87482401749 183139.194607557 550297.022657317
 4036.80492564404 185886.481259558 549390.498908502
 2924.83252087941 187911.513715681 548708.217878871
 1969.13427269391 189448.857246107 548183.594244082
 1439.93130200448 190577.294189631 547793.959018539
 912.633401166335 191414.858160530 547502.985540408
 693.369079836956 192040.768529058 547284.078392646
 394.491582921535 192481.071757772 547129.675114932
 329.750802405667 192832.997613078 547005.782689693
 150.796211482771 193050.716101770 546929.061463273
 156.741021371015 193257.131151270 546856.157221836
 42.0448281993478 193351.311140842 546822.886053930
 75.2774358233826 193482.230897048 546776.572889154
 -2.48763073345140 193508.540412129 546767.267474360
 36.4129137539858 193600.785590515 546734.610659354
 -17.4926189525423 193590.583821287 546738.223969882
 16.8757950308731 193662.614896336 546712.713686742
 -19.5468064892903 193633.828996507 546722.909604192
 6.03765885242599 193694.247107142 546701.507772883
 -16.4115827925266 193657.386167297 546714.565850875
 -0.730525217984682 193709.718476011 546696.026112693
 -11.6600543456968 193671.109731946 546709.704614103
 -5.32471486640318 193716.463461121 546693.636103223
 -6.89948986331144 193679.958127956 546706.570083029
 -8.46365229646795 193718.465169284 546692.926770434
 -2.80950224683436 193686.334112373 546704.311278243
 -10.4074467935754 193717.909142344 546693.123762504
 0.379567111785232 193691.330694168 546702.541071266
 -11.2767938778926 193716.036107647 546693.787441905
 2.66268131070434 193695.391787717 546701.102242452
 -11.1846850482151 193713.575191861 546694.659440981
 4.14819493721109 193698.661835506 546699.943649097
 -10.2804857929459 193710.962806891 546695.585113634
 4.99519986025061 193701.169500664 546699.055156603
 -8.75330471554285 193708.455300939 546696.473619780
 5.37414786757387 193702.921422584 546698.434425667
 -6.81758957572919 193706.190958707 546697.275956072
 5.44060676617920 193703.946227310 546698.071321243
 -4.69318760468895 193704.229151254 546697.971083571
 5.31812917593190 193704.311021638 546697.942069796
 -2.58705239226153 193702.580002712 546698.555415688
 5.08794931672484 193704.123620597 546698.008471303
 -0.681338608690096 193701.230555079 546699.033546781
 4.78256664935767 193703.529114596 546698.219116980
 0.867778883281717 193700.169962822 546699.409324375
 4.37744204950998 193702.707022414 546698.510399495
 1.91371684011627 193699.415369553 546699.676679830
 3.76867991109110 193701.874525983 546698.805368109
 2.27059572602935 193699.041357082 546699.809193485
 2.71086771412014 193701.302297949 546699.008121223
 1.59732895971071 193699.219381639 546699.746120658
 0.659501088886797 193701.352890197 546698.990202170
 -0.863887538781519 193700.279952404 546699.370354141
 -3.60280728104037 193702.558436218 546698.563051233
 -6.87079832066239 193702.820202130 546698.470272721
 -12.8215576579133 193705.765622329 546697.426553551
 -20.4783321691145 193707.894189639 546696.672121985
 -33.1934834899609 193712.393395363 546695.077299250
 -50.9223189644476 193717.345613993 546693.321173019
 -78.6586723787353 193724.877432361 546690.648974930
 -119.028249590352 193734.380941382 546687.273926818
 -180.449765426875 193747.430032019 546682.632606772
 -271.446800916710 193764.563194621 546676.522604211
 -408.300848358784 193787.376511279 546668.351009360
 -612.242149449449 193817.628369314 546657.435779341
 -917.476086139630 193857.713119264 546642.794978403
 -1372.86557508565 193911.198696203 546622.870231674
 -2052.82054061485 193982.712494098 546595.365129690
 -3066.74043546445 194079.524923539 546556.248805696
 -4578.18141534468 194211.938559682 546498.639683411
 -6829.24519818849 194396.334927157 546409.577493762
 -10179.2289789521 194657.735308911 546264.358513165
 -15159.1754587192 195036.033212260 546013.869007224
 -22551.8880679916 195593.415400910 545559.005238091
 -33504.6686939000 196426.088963865 544696.455606305
 -49683.1965524379 197676.224552704 543006.160395000
 -73463.9540441192 199538.123041577 539617.999059750
 -108123.901757522 202231.487539265 532739.755712286
 -157871.727625116 205870.320588798 518742.642085001
 -227282.021343177 210026.712484338 490542.213083829
 -0.000000000000000 0.000000000000000 -0.000000000000000
 -0.000000000000000 -0.000000000000000 0.000000000000000
 -0.000000000000000 -0.000000000000000 -0.000000000000000
 0.000000000000000 0.000000000000000 0.000000000000000
 0.000000000000000 -0.000000000000000 -0.000000000000000
 -0.000000000000000 0.000000000000000 0.000000000000000
 0.000000000000000 0.000000000000000 -0.000000000000000
 -0.000000000000000 0.000000000000000 0.000000000000000
 0.000000000000000 0.000000000000000 0.000000000000000
 0.000000000000000 -0.000000000000000 -0.000000000000000
 -0.000000000000000 0.000000000000000 0.000000000000000
 -0.000000000000000 0.000000000000000 0.000000000000000
 -0.000000000000000 0.000000000000000 -0.000000000000000
 -0.000000000000000 -0.000000000000000 0.000000000000000
 -0.000000000000000 0.000000000000000 0.000000000000000
 0.000000000000000 0.000000000000000 -0.000000000000000
 -0.000000000000000 0.000000000000000 -0.000000000000000
 -0.000000000000000 0.000000000000000 0.000000000000000
 0.000000000000000 -0.000000000000000 0.000000000000000
 0.000000000000000 0.000000000000000 -0.000000000000000
 -0.000000000000000 -0.000000000000000 0.000000000000000
 -0.000000000000000 0.000000000000000 -0.000000000000000
 -0.000000000000000 -0.000000000000000 -0.000000000000000
 -0.000000000000000 0.000000000000000 -0.000000000000000
 0.000000000000000 -0.000000000000000 0.000000000000000
 209783.625430873 -387737.404493693 376895.921518890
 169943.196173955 -377235.861123744 406463.301118820
 150159.795668400 -361129.950037914 428295.686355160
 143527.782556006 -337614.494756490 449239.611526940
 143501.132381266 -305849.582085195 471448.256061687
 144844.394014185 -266320.531824395 494462.815438568
 144024.728362647 -220775.010165400 516638.434987694
 139133.430189959 -171920.640096953 536176.446808539
 129832.941777013 -122754.799743993 551792.231160732
 116839.489810836 -76157.6539245630 562981.833960431
 101546.610046811 -34101.5307681507 570022.255343832
 85476.0474871974 2083.04158596725 573663.234174649
 69882.7968746239 32285.1531406560 574868.735962972
 55765.9852093986 56579.6506351477 574533.635244822
 43463.9354414771 75919.5567200392 573364.724432339
 33343.2707038842 90825.5204399021 571873.194979086
 25040.6136493733 102411.268865162 570337.531359712
 18685.3947259738 111096.133848664 568953.869015595
 13605.4802153273 117780.222710423 567752.331608064
 9977.14630154072 122689.430789359 566787.226500616
 7050.78018124072 126454.926397947 566003.037172527
 5138.36661555837 129177.916704097 565408.403744155
 3503.49515540961 131258.368193422 564941.560075816
 2578.44504701667 132753.139161092 564597.162288312
 1666.85542501982 133877.356388579 564335.073373432
 1273.63599590548 134699.071788724 564140.530285324
 750.501118408713 135285.867350462 564001.037980697
 627.021708654580 135747.831604929 563890.178189279
 309.212198963535 136033.866441776 563821.506834137
 312.563687547061 136308.742671925 563755.114367169
 105.361911660905 136426.561409114 563726.691084387
 160.469481009118 136606.975566691 563682.985796154
 17.0094629216294 136630.834957730 563677.225590525
 85.6249181937125 136764.679242695 563644.759737919
 -16.6076396004240 136736.714861056 563651.550634958
 46.7858676501950 136847.343162915 563624.700026830
 -25.1242690762772 136792.134171238 563638.103216638
 24.6377019789188 136889.776370243 563614.397011192
 -22.7928890026224 136822.247176756 563630.794188879
 10.4830729345345 136910.413722010 563609.384684618
 -16.4178667130445 136840.008651179 563626.482488890
 0.593784593907334 136919.066096286 563607.282900929
 -9.22851531092788 136851.901859811 563623.595027912
 -6.53537912954758 136921.049863684 563606.800936180
 -2.72227304986302 136861.014894836 563621.382307790
 -11.4889566164605 136919.347677435 563607.214378586
 2.47052384261019 136868.686219059 563619.519469087
 -14.5296922240928 136915.716375666 563608.096462627
 6.17673564944060 136875.385195451 563617.892627128
 -15.8588451944403 136911.243069770 563609.183095510
 8.47486429753521 136881.184578685 563616.484177417
 -15.7139998009536 136906.619921227 563610.306128991
 9.57957352029009 136886.013401595 563615.311398874
 -14.3890814682543 136902.281183837 563611.360069699
 9.76735800280462 136889.788780837 563614.394450795
 -12.2185277430427 136898.476866484 563612.284183324
 9.32412663516517 136892.478632904 563613.741144413
 -9.54786373135233 136895.320066113 563613.050995836
 8.50783414362793 136894.124082805 563613.341502150
 -6.70346132074415 136892.825232573 563613.656998221
 7.52356535138404 136894.839053975 563613.167858756
 -3.96920732926553 136890.944349031 563614.113857590
 6.50885574298690 136894.798894743 563613.177625579
 -1.57518870030268 136889.603058892 563614.439641053
 5.52502791548675 136894.226944548 563613.316555534
 0.296625343681501 136888.737211255 563614.649937899
 4.54572997860056 136893.386631968 563613.520664442
 1.48073272640143 136888.331420376 563614.748492934
 3.42447996372871 136892.587149790 563613.714854163
 1.74943876171327 136888.465161374 563614.716009707
 1.80319910575009 136892.213977691 563613.805498973
 0.637386565751630 136889.379558355 563614.493926232
 -1.11938436553840 136892.803335321 563613.662355468
 -2.94509485177298 136891.591218395 563613.956751447
 -7.13587390538499 136895.194983889 563613.081412596
 -11.5675972870231 136896.101797771 563612.861083532
 -20.2835601487595 136900.825897481 563611.713378248
 -31.1805145654004 136904.790609008 563610.749840774
 -49.6649838533282 136912.278489556 563608.929606503
 -75.3453726585908 136921.147356783 563606.772253117
 -115.751101494745 136934.293110995 563603.571645776
 -174.649850116645 136951.635952456 563599.342536323
 -264.420150720671 136975.645770507 563593.472768924
 -397.641960386808 137008.257383836 563585.467599650
 -598.156946224447 137052.703983696 563574.483576949
 -897.300574079407 137113.501846328 563559.298089489
 -1345.23818961925 137196.432125138 563538.223500718
 -2013.95907222063 137310.372315682 563508.478750218
 -3012.74383255851 137466.957375993 563465.845463934
 -4502.55421206267 137683.824235713 563402.956638849
 -6723.68776353046 137985.480783552 563307.020296916
 -10031.9955691691 138408.541246230 563154.006267372
 -14955.1483711348 139005.687830371 562897.648145738
 -22272.7390344470 139854.229373628 562445.303671577
 -33132.4902955932 141063.883536139 561607.709035867
 -49212.6005703051 142784.693992315 559991.652711564
 -72935.9366390782 145200.605315673 556773.861960619
 -107712.948865413 148479.146580567 550228.919339418
 -158085.161048938 152589.314032571 536773.306992068
 -229320.498435341 156777.514236826 509149.211947823
 0.000000000000000 -0.000000000000000 0.000000000000000
 0.000000000000000 -0.000000000000000 0.000000000000000
 0.000000000000000 0.000000000000000 0.000000000000000
 -0.000000000000000 -0.000000000000000 -0.000000000000000
 0.000000000000000 0.000000000000000 -0.000000000000000
 -0.000000000000000 0.000000000000000 0.000000000000000
 0.000000000000000 0.000000000000000 -0.000000000000000
 -0.000000000000000 0.000000000000000 0.000000000000000
 -0.000000000000000 0.000000000000000 0.000000000000000
 -0.000000000000000 0.000000000000000 0.000000000000000
 -0.000000000000000 -0.000000000000000 -0.000000000000000
 -0.000000000000000 0.000000000000000 0.000000000000000
 0.000000000000000 0.000000000000000 -0.000000000000000
 -0.000000000000000 0.000000000000000 0.000000000000000
 -0.000000000000000 0.000000000000000 0.000000000000000
 0.000000000000000 0.000000000000000 0.000000000000000
 0.000000000000000 -0.000000000000000 0.000000000000000
 0.000000000000000 0.000000000000000 -0.000000000000000
 0.000000000000000 0.000000000000000 -0.000000000000000
 -0.000000000000000 0.000000000000000 0.000000000000000
 0.000000000000000 0.000000000000000 -0.000000000000000
 0.000000000000000 -0.000000000000000 0.000000000000000
 0.000000000000000 -0.000000000000000 0.000000000000000
 -0.000000000000000 0.000000000000000 0.000000000000000
 0.000000000000000 0.000000000000000 -0.000000000000000
 157277.361388977 -519661.597506801 203999.156055119
 144262.360355651 -511669.902419522 231910.073827363
 146305.584166786 -497098.677109781 260552.453946075
 157543.309854227 -474081.163207825 294664.480743252
 172039.410042780 -441095.074336839 335018.770799354
 184656.976162746 -397657.288778403 379697.882316772
 191429.475045574 -344867.344569853 425230.844051928
 190134.882419620 -285500.542139611 467694.523086667
 180376.524746016 -223678.836702945 503817.513919243
 163595.458138668 -163691.315707099 531828.618295854
 142260.661219709 -109313.312315924 551554.624692653
 119143.947719702 -62563.9710924382 564172.375469510
 96640.4379943816 -24413.9597568014 571370.794067431
 76211.4015956230 5886.11582176203 574941.019503187
 58849.3797634904 29036.8470704704 576275.638920871
 44460.1900598974 46713.7437447875 576403.606551159
 33231.0684916602 59722.9382678755 575959.084251263
 24315.6696247759 69530.3689819812 575303.638090295
 17814.7840745055 76582.2406233139 574645.798635553
 12681.4552222773 81905.6801550056 574047.594064979
 9211.06705919718 85668.7377697745 573564.315149195
 6364.06784769610 88525.1958119386 573169.074834719
 4647.25830264676 90524.1184195041 572873.273049669
 3080.03341686519 92037.4689505746 572642.661441953
 2312.14758272263 93106.9535014893 572473.361112312
 1429.36527149191 93888.4301808175 572348.599712712
 1147.99989080261 94477.0711229847 572252.361400347
 623.846981014684 94856.8329279539 572190.346005438
 577.422394200944 95202.6590348713 572132.956834397
 243.042611136325 95359.4393297750 572107.086357965
 299.341795831649 95586.6148199036 572069.147447894
 70.8606223879286 95618.2518066710 572063.934276763
 162.080856072725 95789.6046982637 572035.248355857
 -0.863733511232724 95750.9362083791 572041.745167669
 91.4063732215980 95896.4414000844 572017.363522887
 -25.2845766016159 95819.4535144697 572030.271654288
 51.9847564462130 95951.7355489377 572008.095871668
 -28.2370414928243 95856.1221732891 572024.128026580
 27.5096793172551 95978.9552237262 572003.530930867
 -22.2317859200312 95877.5382988729 572020.539102833
 10.7380624434167 95990.5486857090 572001.586053492
 -13.3342988350335 95891.9894725256 572018.117000850
 -1.39854329852866 95993.2696884754 572001.129520354
 -4.47180145483391 95903.3986677099 572016.204406821
 -10.1470964948435 95990.9406627583 572001.520284444
 3.00035252715780 95913.4264400254 572014.523084451
 -16.0412195210690 95985.8589333524 572002.372921219
 8.55511416128853 95922.5984510592 572012.985021500
 -19.4037573338404 95979.4945156741 572003.440772877
 12.1272607304351 95930.9159320753 572011.590111042
 -20.5551214301458 95972.8272267165 572004.559432526
 13.9152888504487 95938.1880507302 572010.370430386
 -19.8784063202846 95966.5079796754 572005.619684838
 14.2587896963375 95944.2100139798 572009.360379251
 -17.8159259760416 95960.9407394515 572006.553751784
 13.5529569860949 95948.8515770012 572008.581838920
 -14.8360659407270 95956.3336178368 572007.326717512
 12.1860539717984 95952.0913239550 572008.038424339
 -11.3922466834465 95952.7416519640 572007.929350361
 10.4951691543336 95954.0181365623 572007.715239314
 -7.88685098464894 95950.1100221405 572008.370851806
 8.73812348764872 95954.8146642860 572007.581651142
 -4.64778815432203 95948.3195555013 572008.671221751
 7.07841513017809 95954.7342747253 572007.595159507
 -1.92277230536616 95947.2337447385 572008.853369453
 5.57667255701071 95954.0812723629 572007.704717408
 0.102902678265568 95946.7471416505 572008.934993961
 4.17538668202135 95953.2040537707 572007.851881757
 1.25271537863070 95946.8388200863 572008.919614776
 2.65022612232358 95952.5133953118 572007.967747040
 1.23875284870430 95947.6425726225 572008.784795497
 0.472535706857357 95952.5454795783 572007.962370950
 -0.598292829805263 95949.5598835554 572008.463187211
 -3.53560107202837 95954.1054386397 572007.700679781
 -5.85798865033156 95953.4671424343 572007.807734326
 -12.0134359152591 95958.5590865682 572006.953448738
 -18.3399546429517 95961.1142471880 572006.524627197
 -30.9161421717827 95968.4012432493 572005.301554983
 -46.8507502088886 95975.8958102294 572004.043017557
 -73.6922734604615 95988.3438961006 572001.951400110
 -111.468188132838 96004.3340994542 571999.261720645
 -170.633690303603 96027.3860311338 571995.377617837
 -257.513065773508 96058.9150271085 571990.051076796
 -389.728864333542 96102.7490375327 571982.613143827
 -586.658163194338 96163.5079236256 571972.233221179
 -883.049283076687 96247.3919044137 571957.742998171
 -1326.03974580757 96363.7704575174 571937.291459303
 -1989.66870348220 96524.4769147031 571908.267622346
 -2981.39478529275 96747.2750645541 571866.309597548
 -4463.36538054234 97055.4185256555 571804.445684264
 -6675.30766118604 97482.5437796083 571710.235981380
 -9974.54171325484 98073.9319516517 571561.031202402
 -14890.8638710693 98892.9183440287 571312.920276248
 -22209.5733570086 100024.240455841 570878.171042239
 -33090.6617649068 101579.739230744 570075.928874193
 -49238.3055879938 103695.964453813 568526.812225085
 -73129.0563279324 106515.876615487 565425.953728178
 -108277.146809200 110118.999141144 559061.593661210
 -159401.884099757 114325.972179913 545821.043411269
 -231981.888640403 118204.305495910 518278.058097255
 -0.000000000000000 0.000000000000000 -0.000000000000000
 0.000000000000000 0.000000000000000 -0.000000000000000
 -0.000000000000000 0.000000000000000 0.000000000000000
 0.000000000000000 0.000000000000000 -0.000000000000000
 0.000000000000000 0.000000000000000 0.000000000000000
 -0.000000000000000 0.000000000000000 0.000000000000000
 0.000000000000000 0.000000000000000 0.000000000000000
 0.000000000000000 0.000000000000000 0.000000000000000
 -0.000000000000000 -0.000000000000000 0.000000000000000
 -0.000000000000000 -0.000000000000000 0.000000000000000
 -0.000000000000000 -0.000000000000000 -0.000000000000000
 0.000000000000000 0.000000000000000 0.000000000000000
 -0.000000000000000 -0.000000000000000 0.000000000000000
 0.000000000000000 0.000000000000000 -0.000000000000000
 0.000000000000000 0.000000000000000 0.000000000000000
 0.000000000000000 0.000000000000000 -0.000000000000000
 -0.000000000000000 -0.000000000000000 0.000000000000000
 0.000000000000000 -0.000000000000000 -0.000000000000000
 0.000000000000000 -0.000000000000000 -0.000000000000000
 0.000000000000000 0.000000000000000 -0.000000000000000
 0.000000000000000 -0.000000000000000 0.000000000000000
 0.000000000000000 -0.000000000000000 0.000000000000000
 -0.000000000000000 0.000000000000000 -0.000000000000000
 0.000000000000000 0.000000000000000 0.000000000000000
 -0.000000000000000 0.000000000000000 -0.000000000000000
 70990.2619670710 -574338.512681607 -38673.7062682956
 93307.2498864480 -572166.176078862 -17878.0331670209
 123876.460608024 -566407.201075024 15411.1997451657
 158564.364388243 -554431.244664145 62155.7502273037
 193301.938479988 -533098.091458550 121822.762499994
 223628.371035766 -499461.156194965 192168.949417639
 244960.204565116 -451867.193865338 268720.183997558
 253419.631678316 -391272.073539213 345086.445326894
 247409.577364418 -321688.675758812 414372.895972822
 228214.479316180 -249550.058464291 471214.303423520
 199791.521837393 -181289.311698350 513436.980812482
 167089.358121342 -121910.498472911 541866.198211961
 134471.112819096 -73269.5263454550 559418.534128346
 105014.819149264 -35622.3660755904 569300.390649984
 79921.5159405343 -7122.53525314596 574423.032948135
 59825.6451043812 13602.7472786879 576745.921055638