# OOMMF OVF 2.0
#
# Segment count: 1
#
# Begin: Segment
# Begin: Header
#
# Title: Oxs_TimeDriver::Magnetization
# Desc: Oxs vector field output
# Desc:  MIF source file: C:/Users/Victor H. González/Documents/GitHub/Intro-to-magnetism-in-python/domain_wall_conversion_thin_film/drive-46/domain_wall_conversion_thin_film.mif
# Desc:  Iteration: 1033, State id: 7271
# Desc:  Stage: 85, Stage iteration: 11
# Desc:  Stage simulation time: 2e-12 s
# Desc:  Total simulation time: 1.72e-10 s
# meshunit: m
# meshtype: rectangular
# xbase: 1.0000000000000001e-09
# ybase: 1.0000000000000001e-09
# zbase: 1.0000000000000001e-09
# xnodes: 125
# ynodes: 25
# znodes: 1
# xstepsize: 2.0000000000000001e-09
# ystepsize: 2.0000000000000001e-09
# zstepsize: 2.0000000000000001e-09
# xmin: 0
# ymin: 0
# zmin: 0
# xmax: 2.5000000000000004e-07
# ymax: 5.0000000000000004e-08
# zmax: 2.0000000000000001e-09
# valuedim: 3
# valuelabels: Magnetization_x Magnetization_y Magnetization_z
# valueunits: A/m A/m A/m
#
# End: Header
#
# Begin: Data Text
 0.000000000000000 -0.000000000000000 -0.000000000000000
 -0.000000000000000 0.000000000000000 0.000000000000000
 0.000000000000000 0.000000000000000 -0.000000000000000
 0.000000000000000 0.000000000000000 0.000000000000000
 0.000000000000000 0.000000000000000 0.000000000000000
 0.000000000000000 -0.000000000000000 0.000000000000000
 -0.000000000000000 -0.000000000000000 0.000000000000000
 -0.000000000000000 -0.000000000000000 -0.000000000000000
 -0.000000000000000 0.000000000000000 -0.000000000000000
 -0.000000000000000 -0.000000000000000 -0.000000000000000
 0.000000000000000 -0.000000000000000 -0.000000000000000
 0.000000000000000 0.000000000000000 0.000000000000000
 0.000000000000000 0.000000000000000 -0.000000000000000
 0.000000000000000 0.000000000000000 0.000000000000000
 0.000000000000000 0.000000000000000 -0.000000000000000
 -0.000000000000000 0.000000000000000 -0.000000000000000
 0.000000000000000 -0.000000000000000 -0.000000000000000
 -0.000000000000000 -0.000000000000000 0.000000000000000
 0.000000000000000 -0.000000000000000 -0.000000000000000
 -0.000000000000000 -0.000000000000000 -0.000000000000000
 0.000000000000000 -0.000000000000000 0.000000000000000
 0.000000000000000 -0.000000000000000 0.000000000000000
 0.000000000000000 0.000000000000000 -0.000000000000000
 -0.000000000000000 -0.000000000000000 0.000000000000000
 0.000000000000000 -0.000000000000000 0.000000000000000
 243944.992880118 279758.485599963 445674.803173272
 176180.993113626 278789.863466589 477112.638371461
 124449.140677750 277200.530911217 494036.716294558
 86780.5931111225 275481.057622485 502970.491729365
 60052.4883828010 273913.187562019 507705.883675428
 41360.3704540101 272578.977655496 510284.254799413
 28390.8309783159 271456.264661024 511766.994923124
 19423.1218636718 270480.923691315 512701.484546477
 13218.6509018431 269577.531960502 513374.348336981
 8903.72182774798 268669.930102359 513942.790976202
 5866.11506789438 267684.779563203 514500.191918535
 3682.11071728844 266550.311409277 515109.088978523
 2057.78542921849 265197.033146196 515816.148573872
 796.435205654537 263557.567030951 516659.244136490
 -231.764951823067 261571.590062544 517668.088215953
 -1097.68683656561 259191.162164943 518862.926541486
 -1831.32519649311 256392.654617775 520249.414133332
 -2417.39422713619 253188.975354238 521813.663067787
 -2816.47830722663 249646.027533154 523515.929449010
 -2959.61319342925 245895.448741615 525287.225218646
 -2787.44812474409 242139.881828505 527029.892663622
 -2247.09918064714 238646.806321309 528623.355876292
 -1349.15083458902 235715.603863465 529939.934225859
 -143.490428007877 233640.765476909 530859.653880252
 1231.28266858023 232640.124662185 531297.521488810
 2627.53792157306 232830.798671517 531208.918632259
 3853.88381730456 234167.822219758 530613.398451621
 4794.98263732694 236505.130710568 529568.061054558
 5346.93339330939 239562.952229341 528186.522189321
 5526.57121799380 243075.576840354 526577.364642938
 5352.69020487795 246722.841189100 524880.165697990
 4935.98489448014 250314.720245575 523180.826179153
 4344.01467559088 253630.266636156 521586.826312331
 3689.10797541233 256626.369230705 520124.309274054
 3020.15005173988 259190.482872164 518855.637226926
 2402.36918025036 261391.204878290 517753.673704588
 1852.79445926928 263174.413342942 516851.811754869
 1388.92369327335 264662.207878349 516093.001901723
 1012.68489554936 265814.887850939 515501.134689434
 709.426357307119 266768.044982042 515009.035736949
 484.459639225612 267475.163280517 514642.402379476
 303.605497367504 268066.274467642 514334.891210718
 185.992702115598 268483.347931309 514117.357507321
 84.0936185288162 268844.251998011 513928.750991705
 34.2306739374746 269082.502033834 513804.054020083
 -22.3156047304293 269302.461206658 513688.800627433
 -32.5079983492495 269434.546679375 513619.532337809
 -65.5031291689299 269569.739506680 513548.587040838
 -53.6505450671143 269640.546986017 513511.414228253
 -75.7500540177288 269724.697743268 513467.215788148
 -52.2151339455681 269760.996268341 513448.149442465
 -70.1405692624798 269813.752535094 513420.426184264
 -40.8831832992792 269831.173596283 513411.273818776
 -57.8845584456541 269863.822128413 513394.111921458
 -26.4125767866059 269871.406367127 513390.127805166
 -43.8445332339070 269890.477313243 513380.101224508
 -12.3576204478712 269893.460784211 513378.534488160
 -30.5812521802385 269902.884598433 513373.579326237
 -0.561128506627092 269904.333326683 513372.818574536
 -19.4175413067015 269906.670506833 513371.589434861
 8.10553577637387 269908.398954284 513370.680997888
 -10.9443650337004 269905.497950163 513372.206158938
 13.3924928286856 269908.560532604 513370.595936170
 -5.26701180753529 269901.879631532 513374.108563750
 15.4768737365103 269906.825904493 513371.507867965
 -2.16767971607755 269897.575719845 513376.371306522
 14.8001793594358 269904.592260329 513372.682227775
 -1.26610211523473 269893.797787525 513378.357465742
 11.8871121981250 269902.808320613 513373.620202035
 -2.21221435028583 269891.345143806 513379.646861436
 7.11485206671928 269902.102700154 513373.991265056
 -4.95521863358560 269890.732337836 513379.969003069
 0.360884750760783 269902.915958838 513373.563749426
 -10.2066338982480 269892.332394651 513379.127751022
 -9.65311641195520 269905.655508543 513372.123348474
 -20.3736770554541 269896.554837780 513376.907614289
 -26.7309805278686 269910.896022470 513369.367506284
 -41.5684321089493 269904.084867971 513372.947518321
 -60.1794449887267 269919.654677834 513364.759597923
 -88.0187776161252 269916.212252664 513366.565541494
 -131.364490427402 269933.766882583 513357.326079944
 -191.817914456641 269935.270576881 513356.516374803
 -288.224299215506 269956.383159315 513345.369238191
 -424.536619914322 269965.221444216 513340.626659564
 -637.453644777161 269992.672446444 513325.969027554
 -945.148449356967 270012.593459415 513315.016405842
 -1415.82649897990 270051.212151072 513293.617972269
 -2106.11272849871 270088.793891526 513271.475637791
 -3147.81477956995 270148.094396628 513234.934855358
 -4687.29206013929 270217.632599876 513186.574576207
 -6992.12222552417 270320.676934429 513106.072706702
 -10408.1190225677 270459.964749834 512974.734783235
 -15495.9248534131 270670.315035753 512735.269775138
 -23032.1519830974 270984.531394774 512285.958932882
 -34197.2038311311 271472.674415641 511403.107436542
 -50652.2416901340 272223.916823303 509635.643888007
 -74776.7154220859 273362.120828370 506045.051084289
 -109734.165257159 275006.247333566 498728.359834113
 -159347.884784773 277203.784274689 483907.339888961
 -226878.705199978 279859.148830732 454538.128150456
 -0.000000000000000 -0.000000000000000 -0.000000000000000
 -0.000000000000000 -0.000000000000000 -0.000000000000000
 0.000000000000000 0.000000000000000 -0.000000000000000
 0.000000000000000 -0.000000000000000 0.000000000000000
 -0.000000000000000 -0.000000000000000 -0.000000000000000
 -0.000000000000000 -0.000000000000000 -0.000000000000000
 0.000000000000000 0.000000000000000 0.000000000000000
 0.000000000000000 0.000000000000000 -0.000000000000000
 0.000000000000000 0.000000000000000 -0.000000000000000
 0.000000000000000 0.000000000000000 -0.000000000000000
 -0.000000000000000 0.000000000000000 0.000000000000000
 -0.000000000000000 -0.000000000000000 0.000000000000000
 0.000000000000000 -0.000000000000000 -0.000000000000000
 -0.000000000000000 -0.000000000000000 -0.000000000000000
 -0.000000000000000 0.000000000000000 0.000000000000000
 -0.000000000000000 0.000000000000000 0.000000000000000
 -0.000000000000000 -0.000000000000000 -0.000000000000000
 0.000000000000000 0.000000000000000 -0.000000000000000
 0.000000000000000 -0.000000000000000 0.000000000000000
 -0.000000000000000 -0.000000000000000 -0.000000000000000
 -0.000000000000000 0.000000000000000 0.000000000000000
 0.000000000000000 -0.000000000000000 -0.000000000000000
 0.000000000000000 0.000000000000000 -0.000000000000000
 0.000000000000000 -0.000000000000000 0.000000000000000
 -0.000000000000000 0.000000000000000 0.000000000000000
 241901.197748480 211638.989051747 482796.798706252
 172352.063173060 208916.372827825 512882.750230942
 120746.572160545 205523.863315261 528753.446248294
 83743.0442268474 202424.074044224 537039.660351970
 57729.5348503452 199873.739704868 541403.536174593
 39642.6029839255 197854.120145718 543766.688176117
 27137.1742872919 196252.650079704 545113.264476654
 18501.1911443912 194938.867655161 545945.550218666
 12520.7580135623 193788.318483106 546524.764524222
 8341.28011294990 192690.370050862 546992.545045853
 5371.06915889036 191543.452777069 547432.422600570
 3194.47721626038 190254.233662808 547898.824500192
 1529.99913795579 188731.006449661 548432.554018392
 180.089085322562 186886.868667687 549065.811982050
 -973.761799994212 184637.790956529 549825.370402867
 -2004.77902623511 181914.374647525 550729.644342535
 -2920.85236034732 178668.965424294 551786.978294795
 -3700.36905146514 174898.329471829 552989.042944656
 -4257.32716953612 170661.298475945 554307.312208558
 -4503.77886865592 166103.409977098 555688.197796104
 -4310.30213982706 161471.534889335 557053.287142213
 -3618.41833615622 157103.401863259 558305.855398039
 -2382.09427536906 153408.377098988 559339.070209401
 -716.688009220777 150775.024668950 560059.263198436
 1244.24743082639 149534.453962756 560390.844791732
 3202.94353807041 149810.335754801 560309.382800008
 4964.41098982725 151591.573008615 559817.246622769
 6255.34433618926 154587.921384591 558984.297837808
 7043.22505050970 158511.025032703 557875.118574014
 7241.11970980067 162865.289061124 556616.981239689
 7013.50405495095 167396.514262221 555274.002429187
 6401.44873126251 171673.616474119 553973.998361690
 5623.88453722679 175666.650373643 552729.228347132
 4727.46572101279 179081.778941288 551640.614457529
 3869.08398379768 182095.639618225 550659.793539674
 3058.50136831396 184491.653688836 549866.779582599
 2363.46392887348 186562.229441465 549171.146896928
 1778.98600959143 188102.084066388 548647.829831358
 1299.47671746431 189447.577407235 548186.032998644
 938.449217119381 190374.466519611 547865.569104722
 635.516103229992 191224.480933646 547569.898744389
 443.556789909643 191751.602675560 547385.719697481
 257.720906533596 192285.243807300 547198.609824533
 178.009744536419 192567.232597837 547099.469239499
 59.5546640331479 192906.215523290 546980.062219569
 49.2832604242042 193044.773072833 546931.177718385
 -35.1242595469458 193265.417276587 546853.250197156
 -3.93860267064487 193323.724360468 546832.641293372
 -73.8288588624525 193471.438338365 546780.392019121
 -18.3064812385115 193487.425144241 546774.739701757
 -83.8416230857767 193588.288725111 546739.030469807
 -14.3440199319975 193584.268602075 546740.460130809
 -80.0086596640092 193652.965999888 546716.125935627
 -3.08207772886195 193641.897109946 546720.052379792
 -70.1671480837092 193686.726297637 546704.167839129
 9.68015861108702 193676.038594449 546707.958585437
 -58.4252114751023 193701.917020450 546698.787202878
 20.9349166174802 193695.765099824 546700.969584034
 -46.9519163326326 193705.955552255 546697.357391734
 29.1917165480704 193706.508668006 546697.162648112
 -36.8696597615772 193703.552625072 546698.209564522
 33.8581419294206 193711.715593437 546695.317425962
 -28.6752167140436 193697.887678314 546700.217200150
 34.9316219880687 193713.701696050 546694.613614397
 -22.4594771644166 193691.190086195 546702.590426060
 32.8009742112017 193714.072085032 546694.482504013
 -18.0707534272873 193685.019419159 546704.776754372
 28.0616731072130 193713.936378551 546694.530853629
 -15.2851372711115 193680.424199605 546706.404798980
 21.3036095871564 193714.052643377 546694.489961838
 -14.0214514199331 193678.074944823 546707.237092272
 12.8261470378197 193714.965563074 546694.166744430
 -14.6731678612689 193678.415819100 546707.116315951
 2.16756622406564 193717.170842366 546693.385469525
 -18.7352722930421 193681.862241216 546705.895237800
 -12.8184179555164 193721.336475187 546691.909241353
 -30.1266299738048 193689.082077399 546703.336898908
 -37.9304584547378 193728.630942795 546689.323212289
 -58.0852063731355 193701.422917349 546698.962305493
 -86.9320819699125 193741.238166368 546684.849869260
 -123.571310204428 193721.583557330 546691.807871832
 -191.090410429735 193763.186974027 546677.044385553
 -273.473604995082 193754.700622469 546680.017193682
 -420.339178372398 193801.744439025 546663.248414749
 -612.143011956888 193810.234123761 546660.057467002
 -930.231949843335 193870.000517458 546638.415744704
 -1371.29832600224 193905.708043236 546624.821910926
 -2065.90577208699 193992.457650860 546591.857246263
 -3064.55104719930 194075.431134200 546557.714753852
 -4591.42662861690 194218.989770479 546496.022688224
 -6827.35894285300 194393.285020436 546410.686122471
 -10192.5640307617 194662.254833833 546262.499336616
 -15158.5030758954 195033.846753631 546014.668671986
 -22565.2102791858 195595.817593154 545557.593133045
 -33506.0642086578 196424.706576656 544696.868274015
 -49696.2454022201 197677.088753174 543004.651706587
 -73468.1920069520 199537.499051407 539617.652820531
 -108136.096816901 202231.493079534 532737.278376527
 -157879.172743391 205870.260289860 518740.400144473
 -227291.977795956 210026.557195554 490537.666343967
 -0.000000000000000 0.000000000000000 -0.000000000000000
 -0.000000000000000 -0.000000000000000 0.000000000000000
 -0.000000000000000 -0.000000000000000 -0.000000000000000
 0.000000000000000 0.000000000000000 0.000000000000000
 0.000000000000000 -0.000000000000000 -0.000000000000000
 -0.000000000000000 0.000000000000000 0.000000000000000
 0.000000000000000 0.000000000000000 -0.000000000000000
 -0.000000000000000 0.000000000000000 0.000000000000000
 0.000000000000000 0.000000000000000 0.000000000000000
 0.000000000000000 -0.000000000000000 -0.000000000000000
 -0.000000000000000 0.000000000000000 0.000000000000000
 -0.000000000000000 0.000000000000000 0.000000000000000
 -0.000000000000000 0.000000000000000 -0.000000000000000
 -0.000000000000000 -0.000000000000000 0.000000000000000
 -0.000000000000000 0.000000000000000 0.000000000000000
 0.000000000000000 0.000000000000000 -0.000000000000000
 -0.000000000000000 0.000000000000000 -0.000000000000000
 -0.000000000000000 0.000000000000000 0.000000000000000
 0.000000000000000 -0.000000000000000 0.000000000000000
 0.000000000000000 0.000000000000000 -0.000000000000000
 -0.000000000000000 -0.000000000000000 0.000000000000000
 -0.000000000000000 0.000000000000000 -0.000000000000000
 -0.000000000000000 -0.000000000000000 -0.000000000000000
 -0.000000000000000 0.000000000000000 -0.000000000000000
 0.000000000000000 -0.000000000000000 0.000000000000000
 238832.607912871 160391.359391552 503620.489287387
 167765.520954436 157309.298352765 532455.176170396
 116222.374038709 153005.988289793 547249.054197694
 79925.7004513616 148921.106778500 554828.249427898
 54747.3632943941 145511.363859842 558774.703435973
 37404.3150484012 142808.720165398 560898.018057188
 25478.7899712763 140690.249205078 562100.600462420
 17259.6528528704 138991.487103749 562835.207583967
 11548.7293021886 137553.304333650 563334.461326838
 7520.04193514624 136229.458311542 563724.208862311
 4593.96132211538 134889.485489188 564077.762568099
 2374.12398042950 133407.890658191 564443.706887993
 575.376123894720 131664.485785545 564857.621109200
 -986.903264763541 129534.196646285 565349.376864561
 -2443.06023888936 126895.368813702 565943.103880862
 -3842.71975799649 123627.944130278 566658.067034241
 -5195.40904623639 119637.517480133 567503.191300307
 -6415.20448211536 114871.635740918 568474.583823814
 -7383.26889754506 109364.483152522 569547.976175114
 -7880.34808742396 103273.182809275 570677.272919172
 -7719.47682875921 96916.6651036304 571793.292810156
 -6682.67452268290 90791.1870642036 572810.878224826
 -4750.95027339178 85509.8924910686 573642.298612703
 -1978.44328934157 81735.9519532347 574208.428987636
 1258.73145643443 79962.8779521863 574460.054089685
 4601.89700016920 80482.7571156826 574370.392996591
 7486.80757468413 83140.6938054474 573961.298996621
 9664.08177095889 87616.1576090939 573262.605137770
 10830.7109760498 93192.7615798276 572361.603262202
 11141.5342268109 99383.3495602805 571313.238114829
 10620.3624552292 105444.971151054 570235.535511662
 9645.12284981887 111214.158725286 569155.850803836
 8317.25749426527 116184.094420006 568183.138989162
 6959.65522909898 120577.598959439 567285.294916296
 5604.02175390079 124042.939544477 566552.684301599
 4420.39610931759 127031.144417481 565900.652452550
 3388.54963535255 129211.281869174 565413.974331280
 2545.41414282109 131124.632088599 564977.744452356
 1883.25069732733 132398.411889819 564683.197816143
 1342.42778272763 133593.362428168 564403.234755777
 972.787810282398 134289.705363371 564238.716074407
 639.056013298169 135037.355924137 564060.727326792
 467.490089230065 135388.115257831 563976.807767792
 255.312093180382 135866.737498729 563861.830998682
 207.834089454448 136020.126218273 563824.868260133
 58.3069257171712 136338.010113262 563748.120705212
 85.9461952105758 136384.012470884 563736.989877011
 -36.0328368973191 136603.710012867 563683.798873406
 36.7144488816426 136595.493482502 563685.789968419
 -76.3372972983963 136751.886254007 563647.865052808
 23.4686460526341 136720.453677124 563655.494957287
 -89.1570797634569 136832.539877330 563628.288929622
 26.4552809342907 136795.839878598 563637.203786289
 -88.4687882924935 136873.923273672 563618.240745406
 35.3192430919396 136842.229631719 563625.942396170
 -81.5128279097069 136892.133945747 563613.819045841
 44.7165422259910 136871.135210896 563618.922984770
 -72.0625852632564 136896.598335678 563612.735990861
 51.9508812512965 136889.148906398 563614.547552481
 -62.1191811747168 136893.123696890 563613.581122488
 55.7841570606901 136900.231905654 563611.855262383
 -52.7314355436717 136885.531200587 563615.426126121
 55.8584372489207 136906.923675011 563610.229795095
 -44.3858224432409 136876.477913459 563617.625544043
 52.3886149129389 136910.944109842 563609.253506705
 -37.2236645465310 136867.844389171 563619.722673595
 45.9427113702189 136913.485223634 563608.636780155
 -31.2144719134183 136860.924639201 563621.403366267
 37.2263365540001 136915.375220307 563608.178296308
 -26.3448085462279 136856.558528937 563622.463794309
 26.8266933386568 136917.217345408 563607.731383024
 -22.8747353684696 136855.280651884 563622.774233299
 14.8464590165390 136919.557071943 563607.163431060
 -21.7735861380230 136857.527618339 563622.228678134
 0.258099539377256 136923.117953119 563606.298554167
 -25.5971026639747 136863.949442986 563620.669145176
 -20.4114138235834 136929.167885183 563604.828373254
 -40.3902207147183 136875.907363664 563617.764404213
 -55.9310080518544 136940.130945875 563602.162352354
 -79.9044496243276 136896.311649549 563612.804567132
 -126.667121974904 136960.655896229 563597.163488174
 -174.984985653043 136931.084019056 563604.336045795
 -278.589010370481 136999.538166755 563587.658603574
 -394.461847780747 136991.800466301 563589.470274997
 -614.406112605965 137073.297993992 563569.457549093
 -891.568083943240 137100.689893535 563562.424170623
 -1362.67453701154 137213.175743436 563534.105019835
 -2006.81565417431 137300.661173735 563510.870464968
 -3030.72978378789 137479.653636025 563462.651391462
 -4495.21898471206 137676.705791279 563404.754762277
 -6741.75487721946 137994.300284141 563304.643891976
 -10025.6764889357 138403.610850039 563155.330539107
 -14972.8722231453 139011.116860608 562895.836266849
 -22268.5965134602 139851.184447270 562446.224823331
 -33149.3469338878 141066.639466909 561606.022071853
 -49211.7722746422 142783.269099181 559992.088814601
 -72951.1449182195 145201.569415856 556771.618075394
 -107716.482492147 148478.983500430 550228.271591162
 -158097.458634186 152589.487140788 536769.635865818
 -229328.414695063 156777.959000004 509145.509442284
 0.000000000000000 -0.000000000000000 0.000000000000000
 0.000000000000000 -0.000000000000000 0.000000000000000
 0.000000000000000 0.000000000000000 0.000000000000000
 -0.000000000000000 -0.000000000000000 -0.000000000000000
 0.000000000000000 0.000000000000000 -0.000000000000000
 -0.000000000000000 0.000000000000000 0.000000000000000
 0.000000000000000 0.000000000000000 -0.000000000000000
 -0.000000000000000 0.000000000000000 0.000000000000000
 -0.000000000000000 0.000000000000000 0.000000000000000
 -0.000000000000000 0.000000000000000 0.000000000000000
 -0.000000000000000 -0.000000000000000 -0.000000000000000
 -0.000000000000000 0.000000000000000 0.000000000000000
 0.000000000000000 0.000000000000000 -0.000000000000000
 -0.000000000000000 0.000000000000000 0.000000000000000
 -0.000000000000000 0.000000000000000 0.000000000000000
 0.000000000000000 0.000000000000000 0.000000000000000
 0.000000000000000 -0.000000000000000 0.000000000000000
 0.000000000000000 0.000000000000000 -0.000000000000000
 0.000000000000000 0.000000000000000 -0.000000000000000
 -0.000000000000000 0.000000000000000 0.000000000000000
 0.000000000000000 0.000000000000000 -0.000000000000000
 0.000000000000000 -0.000000000000000 0.000000000000000
 0.000000000000000 -0.000000000000000 0.000000000000000
 -0.000000000000000 0.000000000000000 0.000000000000000
 0.000000000000000 0.000000000000000 -0.000000000000000
 232609.901768594 124647.736243026 516483.857878147
 160914.003278329 121249.294677178 543879.850784370
 110057.113986522 116116.708970455 557498.288390941
 74948.8856716713 111113.875874225 564301.666774768
 50968.2530455301 106894.868871356 567781.405287688
 34620.3551528473 103548.215103197 569630.755979725
 23442.8153993575 100939.924726226 570667.649339277
 15736.9989000459 98875.6910236140 571293.221201007
 10347.2298435583 97158.1330157480 571710.794041409
 6472.85893110112 95608.7533154519 572028.905202108
 3565.83348202685 94060.1856920471 572311.074765426
 1229.64971733586 92354.8347995842 572598.526413328
 -807.228641578738 90327.3279136078 572922.614507324
 -2751.17036433827 87806.2893464873 573308.369564606
 -4720.54454418508 84600.5559745001 573777.363084334
 -6787.88210575765 80515.9676159586 574344.063793980
 -8913.34978097767 75360.0701841154 575014.271142488
 -10990.0976521507 68992.6680935024 575777.065801458
 -12745.9821164552 61373.1636663734 576602.874361087
 -13848.5402110078 52655.2033609057 577438.869052859
 -13826.9184817474 43266.6721478381 578218.653630744
 -12338.1234458168 33958.9722147521 578873.525837858
 -9128.74783133452 25777.7337517040 579354.964081312
 -4428.21000716117 19841.6202395826 579643.598310549
 1300.41620349753 17124.9544183716 579745.672561570
 7100.43261250303 18033.5067677809 579676.096186803
 12206.3345230595 22456.9294515105 579436.529498375
 15789.5776314543 29527.2157329138 579032.669863526
 17726.3511258642 38314.2866641491 578461.573411044
 17927.0082212383 47523.6793491160 577771.686981421
 16945.4411742791 56532.6115226825 576989.528377972
 15046.7636925115 64463.4981851488 576210.076538163
 12851.0769367215 71423.3064477517 575442.057133155
 10514.9349898130 76932.5805272351 574778.926366982
 8404.08060962257 81566.6913089065 574174.404077737
 6511.84593780190 84941.3982316647 573709.468920404
 4962.28529686738 87806.5669039838 573293.452372490
 3706.58996097479 89709.8575249618 573008.204700171
 2710.26410874999 91434.7839767929 572741.071294506
 1981.82239344770 92435.7640254624 572583.358044076
 1377.96716906014 93481.8461050317 572415.273778815
 1009.15464589959 93963.7610774666 572337.132476199
 640.866192477865 94619.4884876557 572229.623218563
 495.806077114153 94815.2485818666 572197.363514280
 252.653222409067 95247.2676799648 572125.767786987
 241.325043560464 95291.9067873083 572118.339387108
 56.6682733162283 95592.1550570309 572068.297216564
 124.652540154740 95562.4941539754 572073.241965411
 -37.6312198578952 95780.1180813050 572036.858571388
 77.8042347606895 95719.7229812760 572046.963613032
 -79.5422530205239 95880.3674834526 572020.059791847
 64.3138350230995 95814.0353239484 572031.176159719
 -94.8763068982757 95930.9110020833 572011.583198100
 65.1868278703567 95872.7461920321 572021.339014792
 -96.8472521395226 95952.8198994506 572007.908139348
 70.7042615166411 95910.6559984384 572014.983253810
 -92.1980167345624 95958.0596942694 572007.029921169
 75.9647752314608 95935.8766512985 572010.753221039
 -84.4350209602958 95953.7400376637 572007.755754685
 78.5943350274553 95953.0014888254 572007.880477373
 -75.4360667875663 95944.3769966729 572009.327574403
 77.6236967836858 95964.7913316558 572005.902766076
 -66.2101939236546 95933.0464882058 572011.229092316
 72.9377262234737 95973.0295719289 572004.521201426
 -57.2634928331749 95921.9311335822 572013.094123288
 64.9622323246321 95978.9307387847 572003.532011952
 -48.8164408586458 95912.5657578211 572014.665324856
 54.4194628453829 95983.3407919505 572002.793112882
 -40.9912645184827 95905.9710608314 572015.771665953
 42.0751655053373 95986.8745154763 572002.201176211
 -34.0306934662021 95902.7871982760 572016.305929747
 28.4229365568124 95990.0735020568 572001.665190938
 -28.6219467107756 95903.4715554106 572016.191487973
 13.2013779572104 95993.6391001485 572001.067374908
 -26.4930672831169 95908.6138166357 572015.329422113
 -5.50792570987401 95998.8053316114 572000.200475984
 -31.6688168403266 95919.4531860661 572013.511638993
 -33.1787746633189 96007.9738165275 571998.660717675
 -53.2519423242602 95938.7663023662 572010.271135589
 -83.0219791244739 96025.8507798676 571995.654781882
 -111.649139383343 95972.4552756606 572004.611312558
 -185.307043513267 96061.5467092149 571989.637060964
 -252.498369147823 96032.4684549022 571994.494070556
 -408.162397193761 96132.5201802217 571977.597434774
 -577.733790034550 96142.2758312836 571975.811570428
 -903.893426581976 96272.0767538070 571953.555994001
 -1314.66216234004 96347.2938975833 571940.093560516
 -2011.82956733325 96543.7933451722 571904.929606588
 -2969.08483677362 96734.9962630023 571868.450811224
 -4485.96125161509 97069.5081196185 571801.877178681
 -6663.55978104056 97473.9053242343 571711.845908309
 -9996.80700576419 98083.3093282179 571559.033067376
 -14881.1072163069 98887.4054339751 571314.128737032
 -22230.7218448292 100029.705817568 570876.390263522
 -33084.2991782383 101576.861368542 570076.810949543
 -49257.3607811344 103698.523892352 568524.694759537
 -73127.5270528425 106515.083344242 565426.300951154
 -108292.750380350 110119.827959626 559058.408133892
 -159406.331233592 114326.492518232 545819.635659185
 -231992.088869714 118204.664063381 518273.410561964
 -0.000000000000000 0.000000000000000 -0.000000000000000
 0.000000000000000 0.000000000000000 -0.000000000000000
 -0.000000000000000 0.000000000000000 0.000000000000000
 0.000000000000000 0.000000000000000 -0.000000000000000
 0.000000000000000 0.000000000000000 0.000000000000000
 -0.000000000000000 0.000000000000000 0.000000000000000
 0.000000000000000 0.000000000000000 0.000000000000000
 0.000000000000000 0.000000000000000 0.000000000000000
 -0.000000000000000 -0.000000000000000 0.000000000000000
 -0.000000000000000 -0.000000000000000 0.000000000000000
 -0.000000000000000 -0.000000000000000 -0.000000000000000
 0.000000000000000 0.000000000000000 0.000000000000000
 -0.000000000000000 -0.000000000000000 0.000000000000000
 0.000000000000000 0.000000000000000 -0.000000000000000
 0.000000000000000 0.000000000000000 0.000000000000000
 0.000000000000000 0.000000000000000 -0.000000000000000
 -0.000000000000000 -0.000000000000000 0.000000000000000
 0.000000000000000 -0.000000000000000 -0.000000000000000
 0.000000000000000 -0.000000000000000 -0.000000000000000
 0.000000000000000 0.000000000000000 -0.000000000000000
 0.000000000000000 -0.000000000000000 0.000000000000000
 0.000000000000000 -0.000000000000000 0.000000000000000
 -0.000000000000000 0.000000000000000 -0.000000000000000
 0.000000000000000 0.000000000000000 0.000000000000000
 -0.000000000000000 0.000000000000000 -0.000000000000000
 220501.990091844 101717.662452980 526718.510696784
 149611.781056220 97369.6678665419 551847.318330664
 100929.042481241 90968.1731165005 563860.017968703
 68130.6993818377 84868.9982306891 569697.692588851
 46075.1905413833 79825.9425439745 572629.806867876
 31165.7692367261 75888.5182623651 574168.640404390
 20986.6346990929 72862.1421135201 575022.320793407
 13934.1184059637 70494.5006213632 575531.376839172
 8922.56599579959 68546.2598323478 575866.128608939
 5215.75463253153 66798.1022747400 576117.010195070
 2285.09047216910 65050.5865566153 576336.012713221
 -243.152663297637 63101.5603424564 576557.138503314
 -2664.76374010750 60740.0540675076 576804.598513297
 -5188.02900075601 57720.2345882233 577097.443136051
 -7981.02954224531 53763.9558241679 577447.608204920
 -11107.3601871486 48544.6546995616 577858.151322427
 -14553.3325597896 41721.1833540160 578314.398377686