# OOMMF OVF 2.0
#
# Segment count: 1
#
# Begin: Segment
# Begin: Header
#
# Title: Oxs_TimeDriver::Magnetization
# Desc: Oxs vector field output
# Desc:  MIF source file: C:/Users/Victor H. González/Documents/GitHub/Intro-to-magnetism-in-python/domain_wall_conversion_thin_film/drive-46/domain_wall_conversion_thin_film.mif
# Desc:  Iteration: 109, State id: 789
# Desc:  Stage: 8, Stage iteration: 11
# Desc:  Stage simulation time: 2e-12 s
# Desc:  Total simulation time: 1.8e-11 s
# meshunit: m
# meshtype: rectangular
# xbase: 1.0000000000000001e-09
# ybase: 1.0000000000000001e-09
# zbase: 1.0000000000000001e-09
# xnodes: 125
# ynodes: 25
# znodes: 1
# xstepsize: 2.0000000000000001e-09
# ystepsize: 2.0000000000000001e-09
# zstepsize: 2.0000000000000001e-09
# xmin: 0
# ymin: 0
# zmin: 0
# xmax: 2.5000000000000004e-07
# ymax: 5.0000000000000004e-08
# zmax: 2.0000000000000001e-09
# valuedim: 3
# valuelabels: Magnetization_x Magnetization_y Magnetization_z
# valueunits: A/m A/m A/m
#
# End: Header
#
# Begin: Data Text
 0.000000000000000 -0.000000000000000 -0.000000000000000
 -0.000000000000000 0.000000000000000 0.000000000000000
 0.000000000000000 0.000000000000000 -0.000000000000000
 0.000000000000000 0.000000000000000 0.000000000000000
 0.000000000000000 0.000000000000000 0.000000000000000
 0.000000000000000 -0.000000000000000 0.000000000000000
 -0.000000000000000 -0.000000000000000 0.000000000000000
 -0.000000000000000 -0.000000000000000 -0.000000000000000
 -0.000000000000000 0.000000000000000 -0.000000000000000
 -0.000000000000000 -0.000000000000000 -0.000000000000000
 0.000000000000000 -0.000000000000000 -0.000000000000000
 0.000000000000000 0.000000000000000 0.000000000000000
 0.000000000000000 0.000000000000000 -0.000000000000000
 0.000000000000000 0.000000000000000 0.000000000000000
 0.000000000000000 0.000000000000000 -0.000000000000000
 -0.000000000000000 0.000000000000000 -0.000000000000000
 0.000000000000000 -0.000000000000000 -0.000000000000000
 -0.000000000000000 -0.000000000000000 0.000000000000000
 0.000000000000000 -0.000000000000000 -0.000000000000000
 -0.000000000000000 -0.000000000000000 -0.000000000000000
 0.000000000000000 -0.000000000000000 0.000000000000000
 0.000000000000000 -0.000000000000000 0.000000000000000
 0.000000000000000 0.000000000000000 -0.000000000000000
 -0.000000000000000 -0.000000000000000 0.000000000000000
 0.000000000000000 -0.000000000000000 0.000000000000000
 288475.474632346 214405.467978881 455205.663229709
 217684.891680790 218021.321252697 491406.136930697
 161875.549485680 223007.817808764 510356.561312660
 119537.934657432 228709.059266850 519425.498399056
 87937.4326136301 234682.105282269 523059.573476678
 64460.4938197907 240459.140104285 523855.177197684
 47059.4755364212 245826.507326349 523215.762432637
 34165.7388612707 250533.288287422 521982.541612222
 24631.5106430720 254614.926339370 520542.532333946
 17610.1214147244 257981.795024193 519167.869826181
 12449.0764351553 260790.729033125 517912.363384272
 8702.70033869822 263016.748135029 516862.122047350
 5976.14425445677 264835.712538150 515971.250230340
 4051.06822588903 266237.404867495 515268.117678215
 2672.98101415118 267367.905716277 514691.420333961
 1752.28621084844 268217.804331345 514252.991175266
 1114.64859059030 268889.546723855 513903.852117456
 737.760768443145 269376.017434876 513649.702559998
 496.113280073131 269740.072731876 513458.904912765
 396.727796220132 269981.684973875 513331.990417237
 347.863670087087 270135.239529015 513251.236097361
 365.200208868499 270210.272110035 513211.725777022
 384.406253972838 270224.154215739 513204.402465743
 421.161338271250 270194.456392316 513220.009701481
 435.305484881547 270129.743344850 513254.062107237
 440.558255464905 270050.998804312 513295.493797888
 417.255027382004 269962.148298221 513342.248781894
 377.569083845640 269882.120889316 513384.357246957
 316.992291479638 269811.400242125 513421.569292985
 246.378238397681 269762.690092263 513447.203061765
 169.863108154242 269732.963393175 513462.851242094
 96.0725968670369 269727.062175407 513465.970343002
 31.3145336055138 269738.724267767 513459.852033046
 -19.7142899407078 269766.177374021 513445.429579771
 -53.4619287847330 269801.604169938 513426.812242164
 -70.2575070265963 269840.185613532 513406.534134439
 -71.1975450145127 269875.445322154 513388.000388671
 -60.6375164455541 269903.657591345 513373.170259127
 -42.7639298090001 269922.147622802 513363.450582470
 -22.8808381047274 269930.647023960 513358.982850883
 -4.86401389445919 269930.480049851 513359.071134813
 8.21654880161415 269924.212020754 513362.366849639
 15.2605669283166 269914.969994872 513367.226008617
 16.4851545638609 269905.613592924 513372.145211705
 13.4064590144089 269898.334771967 513375.972078540
 8.05251577263693 269894.212577618 513378.139340063
 2.47213886434795 269893.324297624 513378.606384670
 -1.81350232197489 269894.888645525 513377.783975632
 -4.06352857753198 269897.723001170 513376.293864716
 -4.32580631983354 269900.614289298 513374.773812999
 -3.22811396807748 269902.679426581 513373.688094678
 -1.61497644651305 269903.515173151 513373.248713418
 -0.213459543177872 269903.199823691 513373.414509251
 0.614335027227099 269902.144589184 513373.969291181
 0.904810698876041 269900.894105858 513374.626720137
 0.976647662028807 269899.949167077 513375.123509754
 1.18179746223374 269899.656611227 513375.277316453
 1.68294715109917 269900.181738426 513375.001236652
 2.30699410614870 269901.512475363 513374.301614513
 2.57218861032857 269903.472022496 513373.271395761
 1.84051185794677 269905.691756633 513372.104378477
 -0.424661819681603 269907.584623833 513371.109201081
 -4.40485989746677 269908.337358975 513370.713427160
 -9.72174649163584 269907.002558139 513371.415132912
 -15.3502931275182 269902.688546415 513373.683080644
 -19.6589989106613 269894.856041436 513377.800743173
 -20.5920200466808 269883.631167119 513383.701731969
 -15.9785812228310 269870.074046925 513390.828588310
 -3.94176515768018 269856.299963539 513398.069098873
 16.6408830746176 269845.422990574 513403.785936683
 45.7023835007049 269841.294492183 513405.954092933
 81.6517987825660 269848.077358328 513402.384566918
 121.216712573507 269869.705002760 513391.008519074
 159.499702432024 269909.305670262 513370.179570690
 190.247170201873 269968.680022627 513338.948077052
 206.292279490074 270047.902315617 513297.270495792
 200.079460637273 270145.127163336 513246.110787130
 164.189791574440 270256.606565457 513187.431305012
 91.7221839511189 270376.960220994 513124.050273125
 -23.5423660540014 270499.609184504 513059.412618839
 -187.357739310454 270617.391444806 512997.263486547
 -405.657293665021 270723.191300355 512941.311588676
 -685.818931003225 270810.630983427 512894.854525518
 -1038.62042885688 270874.613160605 512860.473435707
 -1481.19145670501 270911.851087738 512839.716687469
 -2041.20524405812 270921.159196337 512832.876267566
 -2762.92569197216 270903.774528099 512838.679496827
 -3715.82124860267 270863.488687367 512853.939410196
 -5007.05255865888 270807.038777760 512872.768991585
 -6799.56385975969 270744.592922886 512885.105393340
 -9338.50161971526 270691.027204625 512873.434853477
 -12989.6804765372 270667.967641367 512806.122715017
 -18295.3799004697 270707.540396471 512623.357492410
 -26054.1776972915 270857.699828597 512208.245021573
 -37432.2488873476 271189.266730597 511326.909475100
 -54109.9669796712 271801.612936940 509505.637533420
 -78450.0329488068 272819.788975108 505781.528996373
 -113612.740078183 274366.019967468 498212.236280020
 -163364.882003073 276486.485098346 482977.368917100
 -230866.682837429 279088.414451607 453001.359462122
 -0.000000000000000 -0.000000000000000 -0.000000000000000
 -0.000000000000000 -0.000000000000000 -0.000000000000000
 0.000000000000000 0.000000000000000 -0.000000000000000
 0.000000000000000 -0.000000000000000 0.000000000000000
 -0.000000000000000 -0.000000000000000 -0.000000000000000
 -0.000000000000000 -0.000000000000000 -0.000000000000000
 0.000000000000000 0.000000000000000 0.000000000000000
 0.000000000000000 0.000000000000000 -0.000000000000000
 0.000000000000000 0.000000000000000 -0.000000000000000
 0.000000000000000 0.000000000000000 -0.000000000000000
 -0.000000000000000 0.000000000000000 0.000000000000000
 -0.000000000000000 -0.000000000000000 0.000000000000000
 0.000000000000000 -0.000000000000000 -0.000000000000000
 -0.000000000000000 -0.000000000000000 -0.000000000000000
 -0.000000000000000 0.000000000000000 0.000000000000000
 -0.000000000000000 0.000000000000000 0.000000000000000
 -0.000000000000000 -0.000000000000000 -0.000000000000000
 0.000000000000000 0.000000000000000 -0.000000000000000
 0.000000000000000 -0.000000000000000 0.000000000000000
 -0.000000000000000 -0.000000000000000 -0.000000000000000
 -0.000000000000000 0.000000000000000 0.000000000000000
 0.000000000000000 -0.000000000000000 -0.000000000000000
 0.000000000000000 0.000000000000000 -0.000000000000000
 0.000000000000000 -0.000000000000000 0.000000000000000
 -0.000000000000000 0.000000000000000 0.000000000000000
 294458.848964593 135188.151195232 481059.403860752
 222359.179710943 138240.490457387 517538.367656329
 166134.638671750 143063.578413372 536965.636111816
 123471.225062551 149214.025330673 546708.360303893
 91380.4089823807 155773.344928583 551166.296015979
 67377.2808129518 162300.885050516 552737.482664304
 49412.8605060913 168156.760358450 552884.864291252
 36024.4822892608 173418.816881200 552293.536651766
 26073.4636010783 177726.739263737 551482.892433231
 18692.3154816101 181434.412989111 550574.382917724
 13293.7220319284 184294.373705918 549780.738817650
 9303.22025312108 186722.566469970 549042.924791668
 6472.05192199527 188513.958166552 548471.147937882
 4375.77036637852 190036.472440579 547966.232331922
 2972.24654469083 191119.585383648 547598.821979430
 1922.99172183493 192040.208747026 547281.335628428
 1298.66934717171 192672.260079844 547060.978003048
 820.966343624361 193196.113093970 546877.123218410
 605.906096949873 193536.950712203 546756.876122124
 428.211369605930 193793.321790026 546666.228209325
 405.642849886687 193939.189817087 546614.513260460
 365.836006236495 194014.655110119 546587.760351911
 405.725147114186 194031.394317148 546581.790225807
 405.275723658748 193994.544617324 546594.870457366
 433.978613741183 193937.685292813 546615.025301929
 419.193060623228 193849.286565632 546646.392446867
 405.840664074560 193769.051943625 546674.848335118
 358.954489169812 193680.109026186 546706.398827817
 305.386115255621 193616.407536723 546728.994541075
 235.378851234028 193561.003185873 546748.646676400
 163.808339188498 193535.923541475 546757.550899644
 93.7292806393745 193525.711756598 546761.181965146
 31.8928490531889 193539.871591629 546756.176999530
 -15.7974871935876 193564.900082783 546747.317511829
 -48.8221007412387 193601.373280251 546734.401588562
 -64.3116798527854 193638.824766384 546721.136784651
 -66.3761696880811 193674.448417238 546708.517973228
 -56.3816141115567 193702.371156172 546698.626511527
 -40.4155485702896 193721.080022252 546691.998772248
 -21.7431170432627 193729.769187453 546688.920738123
 -5.19900443029986 193729.854280212 546688.890991520
 7.18083314301370 193723.918998400 546690.994215505
 13.7942270357797 193714.881109271 546694.196646114
 15.1504915050814 193705.737855234 546697.436332403
 12.4296605596477 193698.499661086 546700.000982758
 7.59314909638495 193694.381372459 546701.460183787
 2.48198824492056 193693.385653382 546701.813009588
 -1.48165835048018 193694.840312675 546701.297633408
 -3.59897437259173 193697.555163637 546700.335751385
 -3.91131727501141 193700.378106077 546699.335564133
 -2.96776183952050 193702.419350173 546698.612335061
 -1.54958075701923 193703.276873967 546698.308508345
 -0.301051538147878 193702.999492192 546698.406790835
 0.438794755448704 193701.970138250 546698.771504352
 0.725465808670084 193700.714468222 546699.216401463
 0.846431492266164 193699.728674515 546699.565676344
 1.13935120773215 193699.385364890 546699.687312848
 1.73330915792623 193699.881902377 546699.511384454
 2.45205782162276 193701.253617032 546699.025370613
 2.79622311968164 193703.344060746 546698.284698119
 2.12409447823983 193705.790793556 546697.417781108
 -0.128243628702551 193707.960711878 546696.648935064
 -4.16619990080348 193708.973205019 546696.290167128
 -9.64394447654282 193707.772267925 546696.715620271
 -15.5500770298890 193703.365230051 546698.276983519
 -20.2458079940570 193695.115463400 546701.199775277
 -21.6371768023399 193683.108664254 546705.453557931
 -17.4862640414704 193668.420262297 546710.657192026
 -5.83178664027416 193653.273020549 546716.023008673
 14.5446237123933 193640.964814030 546720.382402508
 43.6644339530869 193635.608149482 546722.278080926
 80.0139256903611 193641.667849908 546720.127734545
 120.375317278326 193663.385988463 546712.427549683
 159.880706476177 193704.167242920 546697.969660476
 192.287393415481 193766.007683286 546676.044190743
 210.414425626270 193849.087989459 546646.583096817
 206.697343543747 193951.537429859 546610.243596662
 173.695155136748 194069.502003164 546568.383848021
 104.525709785385 194197.380934245 546522.978759956
 -7.00766101501157 194328.383273733 546476.421636935
 -166.556300025426 194455.101861531 546431.318299950
 -379.925452155139 194570.340230184 546390.188747347
 -654.237293587770 194667.731327046 546355.238241151
 -999.941203086005 194742.559748318 546328.047550428
 -1433.62856413083 194792.177770313 546309.392367218
 -1982.24552044528 194816.686126430 546298.937862241
 -2688.94321680679 194819.123434929 546295.047321886
 -3621.62005868429 194806.160502759 546294.283054768
 -4885.09783665349 194788.419371624 546290.771931789
 -6638.95370011845 194781.812125070 546274.628697912
 -9123.41762212673 194808.992917630 546229.090702162
 -12697.2965512176 194902.821455926 546124.224740864
 -17893.0647729169 195111.051861513 545904.309998122
 -25496.3243084102 195504.516384392 545461.200746731
 -36658.0037852541 196187.477812448 544579.346200414
 -53046.6247211210 197309.985793363 542821.172313608
 -77036.9522046711 199072.547401510 539291.599105798
 -111891.597017879 201698.827314743 532163.371133947
 -161775.025506000 205302.131011204 517764.305572325
 -231157.150332149 209447.372972273 488976.655685456
 -0.000000000000000 0.000000000000000 -0.000000000000000
 -0.000000000000000 -0.000000000000000 0.000000000000000
 -0.000000000000000 -0.000000000000000 -0.000000000000000
 0.000000000000000 0.000000000000000 0.000000000000000
 0.000000000000000 -0.000000000000000 -0.000000000000000
 -0.000000000000000 0.000000000000000 0.000000000000000
 0.000000000000000 0.000000000000000 -0.000000000000000
 -0.000000000000000 0.000000000000000 0.000000000000000
 0.000000000000000 0.000000000000000 0.000000000000000
 0.000000000000000 -0.000000000000000 -0.000000000000000
 -0.000000000000000 0.000000000000000 0.000000000000000
 -0.000000000000000 0.000000000000000 0.000000000000000
 -0.000000000000000 0.000000000000000 -0.000000000000000
 -0.000000000000000 -0.000000000000000 0.000000000000000
 -0.000000000000000 0.000000000000000 0.000000000000000
 0.000000000000000 0.000000000000000 -0.000000000000000
 -0.000000000000000 0.000000000000000 -0.000000000000000
 -0.000000000000000 0.000000000000000 0.000000000000000
 0.000000000000000 -0.000000000000000 0.000000000000000
 0.000000000000000 0.000000000000000 -0.000000000000000
 -0.000000000000000 -0.000000000000000 0.000000000000000
 -0.000000000000000 0.000000000000000 -0.000000000000000
 -0.000000000000000 -0.000000000000000 -0.000000000000000
 -0.000000000000000 0.000000000000000 -0.000000000000000
 0.000000000000000 -0.000000000000000 0.000000000000000
 310219.615567187 61631.9236349631 486174.141750053
 237203.075960944 67291.6798640601 524982.409777451
 179663.538123380 75260.7375375493 546312.030303464
 135186.990352285 84303.0877116040 557689.400151895
 101170.876823116 93528.5267550220 563397.611253258
 75196.0759891202 101857.099346906 566012.969346527
 55530.1846041018 109310.114699892 566893.021144317
 40681.6781782449 115319.095837458 566962.527153103
 29554.2353775281 120454.249911759 566583.904509690
 21307.7529799143 124307.256154792 566121.617437644
 15166.7970874552 127587.178666932 565589.497874492
 10749.5615721339 129910.389439932 565161.691590621
 7446.05090573358 131926.749345502 564747.633136287
 5189.81813435990 133283.604125346 564454.202446124
 3464.75349949728 134492.879192974 564180.521579372
 2396.45183918193 135270.344328187 564000.169294226
 1536.83489027817 135969.820493166 563834.945754142
 1101.35681000995 136399.951928498 563732.064128945
 708.749089463351 136769.173972454 563643.230000699
 589.172925537057 136981.097923585 563591.901722260
 435.922038870444 137130.145320051 563555.794235564
 447.952564133108 137198.463752805 563539.156476611
 398.644690268344 137204.640355636 563537.689730946
 436.160720385985 137182.606417870 563543.026094925
 411.248068908028 137110.213312837 563560.662467080
 420.944318337834 137044.863880347 563576.550337129
 381.566712248194 136949.575793380 563599.741036897
 349.249229959871 136882.310364520 563616.102621498
 288.083833945653 136806.331320265 563634.584388142
 226.396844231577 136766.272788613 563644.334107937
 156.945712244419 136731.813035363 563652.718144875
 91.2300166015255 136729.565606419 563653.277792442
 34.3273728704368 136736.578558439 563651.582900078
 -12.0212213897238 136763.798768521 563644.979754006
 -41.5224638619091 136795.002601358 563637.406085845
 -58.1458189428471 136831.703775458 563628.495962517
 -59.4146587198992 136864.091876419 563620.632007684
 -51.9873429392207 136890.913636227 563614.118933474
 -37.0413646266074 136908.510715779 563609.845834443
 -20.8684157041143 136917.050194193 563607.772241149
 -5.47495239981929 136917.606329081 563607.637498943
 5.61900577313392 136912.349308638 563608.914563296
 11.9911069543261 136904.303727948 563610.868842129
 13.3967610774622 136895.855268203 563612.920922608
 11.2318349907054 136889.208110441 563614.535455520
 7.03708967143856 136885.238717085 563615.499584465
 2.53685624227964 136884.192282507 563615.753769117
 -1.01198923081553 136885.349488179 563615.472724511
 -2.97869130462293 136887.748078551 563614.890166247
 -3.35323688966599 136890.287843069 563614.273313760
 -2.63410942217261 136892.185808463 563613.812337528
 -1.46754695933105 136893.027804353 563613.607834661
 -0.441295786386735 136892.828871300 563613.656154123
 0.186156582303414 136891.899973030 563613.881768129
 0.453021052498574 136890.699464911 563614.173348934
 0.653817071083514 136889.699244534 563614.416281480
 1.07153890306121 136889.276212813 563614.519025889
 1.82967462552267 136889.691527746 563614.418153130
 2.70969162684499 136891.036337751 563614.091522768
 3.20817448295440 136893.227097943 563613.559422074
 2.63554834539002 136895.910189054 563612.907735943
 0.393900487712631 136898.444488001 563612.292180192
 -3.78730068344923 136899.861580095 563611.947961545
 -9.60048073219564 136899.011177348 563612.154452417
 -16.0524830763843 136894.757001730 563613.187609867
 -21.4662149315113 136886.351891395 563615.228861913
 -23.6543359876263 136873.773991640 563618.283445239
 -20.2383519751237 136858.068307250 563622.097446168
 -9.08122471355423 136841.478509832 563626.125793309
 11.2077985720175 136827.420295683 563629.538730551
 40.8062671665103 136820.187801973 563631.293085011
 78.3036414935689 136824.491666096 563630.244352496
 120.526609756106 136844.847594275 563625.294996805
 162.585627611125 136884.921491095 563615.553222487
 198.147427589414 136946.948634327 563600.473737685
 219.909382114639 137031.263027309 563579.971781294
 220.139097644852 137136.116611802 563554.466808144
 191.265839302620 137257.664622651 563524.885803382
 126.266411339078 137390.351547281 563492.569035749
 18.9135744661060 137527.349128075 563459.162569996
 -136.462087074987 137661.395133451 563426.411936830
 -345.521389525062 137785.435935754 563396.001280595
 -615.219630201299 137893.648970312 563369.295470084
 -955.642593185872 137981.990278239 563347.190554892
 -1382.97573826263 138049.191024148 563329.839646086
 -1923.51817977094 138097.071503794 563316.517528013
 -2619.65925178522 138131.540407884 563305.259100205
 -3538.19328856887 138162.853312515 563292.559113643
 -4782.54895075153 138207.010227221 563272.535767177
 -6510.36606631085 138286.595950183 563235.681144398
 -8959.37444535559 138433.504680727 563165.956349777
 -12485.1502979195 138691.667494220 563035.294088844
 -17616.4689747528 139122.707920716 562791.730715430
 -25135.6712023529 139812.260914187 562335.068914674
 -36194.0129239058 140879.077683652 561465.118150244
 -52472.4689574586 142480.918694777 559773.014541967
 -76392.5644696881 144808.579188620 556412.303500846
 -111351.283293831 148032.963784841 549624.538518699
 -161848.435504353 152121.196523485 535783.748813882
 -233051.587577391 156308.287902503 507596.962816609
 0.000000000000000 -0.000000000000000 0.000000000000000
 0.000000000000000 -0.000000000000000 0.000000000000000
 0.000000000000000 0.000000000000000 0.000000000000000
 -0.000000000000000 -0.000000000000000 -0.000000000000000
 0.000000000000000 0.000000000000000 -0.000000000000000
 -0.000000000000000 0.000000000000000 0.000000000000000
 0.000000000000000 0.000000000000000 -0.000000000000000
 -0.000000000000000 0.000000000000000 0.000000000000000
 -0.000000000000000 0.000000000000000 0.000000000000000
 -0.000000000000000 0.000000000000000 0.000000000000000
 -0.000000000000000 -0.000000000000000 -0.000000000000000
 -0.000000000000000 0.000000000000000 0.000000000000000
 0.000000000000000 0.000000000000000 -0.000000000000000
 -0.000000000000000 0.000000000000000 0.000000000000000
 -0.000000000000000 0.000000000000000 0.000000000000000
 0.000000000000000 0.000000000000000 0.000000000000000
 0.000000000000000 -0.000000000000000 0.000000000000000
 0.000000000000000 0.000000000000000 -0.000000000000000
 0.000000000000000 0.000000000000000 -0.000000000000000
 -0.000000000000000 0.000000000000000 0.000000000000000
 0.000000000000000 0.000000000000000 -0.000000000000000
 0.000000000000000 -0.000000000000000 0.000000000000000
 0.000000000000000 -0.000000000000000 0.000000000000000
 -0.000000000000000 0.000000000000000 0.000000000000000
 0.000000000000000 0.000000000000000 -0.000000000000000
 337315.131693267 -10811.0104815181 471700.778018356
 264521.572086826 -39.0700850461051 516166.965597608
 204644.741831932 14101.6283741381 542514.215221813
 156603.483011882 29146.7007732646 557696.888051727
 118505.604505191 42947.6436000650 566137.723182320
 88806.6176974755 55044.0608230497 570511.644071568
 65850.4080451607 64665.8868623328 572609.855692857
 48383.8437713603 72588.4089024622 573402.063612364
 35234.1329702861 78399.9637263326 573595.677774459
 25389.2172802942 83174.3894667029 573443.465899416
 18198.7330453097 86455.8818254688 573231.355225206
 12828.1656032684 89244.0986095087 572949.325011062
 9073.85104799933 91040.4444737457 572738.424324037
 6217.66993988602 92651.2018205163 572518.205284105
 4367.10450327511 93624.6772266133 572376.928441800
 2887.11291701018 94542.8327379512 572235.368844750
 2056.51490876724 95067.5534042457 572152.017418588
 1319.92942569641 95566.0047127743 572071.146387886
 1012.30499240836 95837.1992784497 572026.403650273
 670.521921384506 96068.8192030815 571988.052652569
 606.365271247727 96184.8936290464 571968.616760331
 461.825240156088 96243.4151840027 571958.907397347
 483.219955967256 96259.8672636906 571956.121090465
 420.310065054099 96214.3877118195 571963.823101330
 442.564561685257 96173.2732675931 571970.720968832
 396.778456928252 96082.0822359739 571986.080285225
 384.668695074205 96021.7564029363 571996.218805064
 328.809902218988 95932.3264418740 572011.259178959
 281.471513233165 95884.5875683946 572019.288696305
 215.389624866113 95827.7663153206 572028.839142159
 151.974162675265 95810.8596414461 572031.691498487
 90.3805256056099 95796.5030993836 572034.108970165
 35.1392117871391 95811.1502124966 572031.661938563
 -5.86693637954357 95829.7156272132 572028.553105863
 -36.4682597350637 95862.0718618128 572023.130518711
 -50.1136583051740 95893.0489436511 572017.937352415
 -54.1668512358533 95924.1257048651 572012.726408871
 -46.4803171054325 95948.1175935702 572008.703229095
 -34.6681648551774 95964.7814580855 572005.908638906
 -19.4642097312205 95972.9983874618 572004.530752742
 -6.22990762608711 95973.8652969116 572004.385596088
 4.25258616373875 95969.6742966260 572005.088786206
 10.0042784935342 95962.5362443306 572006.286274435
 11.6970188760370 95955.1849022079 572007.519490403
 9.99491862437163 95949.0815847469 572008.543330556
 6.50056625770424 95945.4592495051 572009.150981996
 2.61620270505212 95944.2735839148 572009.349888278
 -0.520938436794662 95945.1489271498 572009.203070262
 -2.31604206531835 95947.1277227916 572008.871151823
 -2.77725718454995 95949.3459891238 572008.499059714
 -2.27133897011003 95951.0509441012 572008.213068278
 -1.39032862267439 95951.8739697397 572008.075012724
 -0.585348396065289 95951.7664629186 572008.093047907
 -0.104358131284835 95950.9579095422 572008.228678776
 0.146805670805981 95949.8317405345 572008.417585739
 0.411169837970639 95948.8077009058 572008.589359116
 0.982085488271919 95948.2890522061 572008.676356391
 1.92496498780603 95948.5795634715 572008.627623786
 3.02707865108589 95949.8741972624 572008.410455971
 3.72752117794503 95952.1437620787 572008.029745709
 3.31152407842653 95955.0966766144 572007.534400392
 1.09476472047875 95958.0531545255 572007.038447601
 -3.25456634534767 95959.9957552279 572006.712551579
 -9.50033373016735 95959.6302217027 572006.773803822
 -16.6600177895545 95955.6927218054 572007.434179594
 -23.0100174176457 95947.2610842202 572008.848324023
 -26.2393998397468 95934.2020154144 572011.038525622
 -23.7776215161244 95917.4647458502 572013.845454246
 -13.2643663029646 95899.3022940138 572016.891047439
 6.92898057092609 95883.2028093625 572019.590023810
 37.1730940311884 95873.6379939926 572021.192051446
 76.1946468630692 95875.5579302984 572020.866390318
 120.863892568694 95893.7619050980 572017.807257439
 166.238606430576 95932.2191553182 572011.347520888
 205.852559218665 95993.4208422163 572001.067114156
 232.182435077566 96077.9471970297 571986.865368185
 237.269847517961 96184.1797161321 571969.009016533
 213.272365768523 96308.4301151475 571948.110236981
 152.990349813096 96445.1667163237 571925.088111208
 50.0128318383811 96587.7367731276 571901.046164249
 -101.338361159691 96728.9580795034 571877.170727587
 -306.732497888777 96862.2191767762 571854.541305152
 -572.925345860547 96982.1250264609 571834.013662968
 -909.825288402697 97085.7165702593 571815.998251171
 -1333.24488587414 97172.9315174489 571800.353128940
 -1869.16673487025 97247.8563504993 571786.114426496
 -2559.51539970143 97319.0212909303 571771.332768524
 -3470.71758881359 97400.8974564110 571752.585734515
 -4705.78519062872 97514.3962221697 571724.407485955
 -6422.15386764235 97689.1675340503 571677.866010399
 -8857.60028131242 97965.0403953648 571598.105120714
 -12368.4975069976 98395.9411016401 571458.886573777
 -17485.8785803446 99053.0638691812 571211.637301273
 -24997.5658885476 100030.473790483 570761.794457985
 -36066.9865444797 101448.010102488 569918.830824044
 -52401.2123630846 103450.406100079 568288.770274944
 -76475.5918602601 106186.297603763 565045.090281145
 -111791.949382885 109738.357788201 558444.314934912
 -163029.938294984 113924.247983348 544832.547615286
 -235572.421464121 117800.508632528 516748.173108961
 -0.000000000000000 0.000000000000000 -0.000000000000000
 0.000000000000000 0.000000000000000 -0.000000000000000
 -0.000000000000000 0.000000000000000 0.000000000000000
 0.000000000000000 0.000000000000000 -0.000000000000000
 0.000000000000000 0.000000000000000 0.000000000000000
 -0.000000000000000 0.000000000000000 0.000000000000000
 0.000000000000000 0.000000000000000 0.000000000000000
 0.000000000000000 0.000000000000000 0.000000000000000
 -0.000000000000000 -0.000000000000000 0.000000000000000
 -0.000000000000000 -0.000000000000000 0.000000000000000
 -0.000000000000000 -0.000000000000000 -0.000000000000000
 0.000000000000000 0.000000000000000 0.000000000000000
 -0.000000000000000 -0.000000000000000 0.000000000000000
 0.000000000000000 0.000000000000000 -0.000000000000000
 0.000000000000000 0.000000000000000 0.000000000000000
 0.000000000000000 0.000000000000000 -0.000000000000000
 -0.000000000000000 -0.000000000000000 0.000000000000000
 0.000000000000000 -0.000000000000000 -0.000000000000000
 0.000000000000000 -0.000000000000000 -0.000000000000000
 0.000000000000000 0.000000000000000 -0.000000000000000
 0.000000000000000 -0.000000000000000 0.000000000000000
 0.000000000000000 -0.000000000000000 0.000000000000000
 -0.000000000000000 0.000000000000000 -0.000000000000000
 0.000000000000000 0.000000000000000 0.000000000000000
 -0.000000000000000 0.000000000000000 -0.000000000000000
 377978.584043393 -87456.2421324942 431142.198951360
 307292.417327486 -68881.0740401647 487059.306339694
 244126.322539642 -44741.5354710691 524214.205880537
 189860.104906196 -20769.5631364506 547651.135132694
 145053.886056729 457.649756687546 561568.482641736
 109039.365353162 17424.8204776633 569391.598493252
 80939.8571319603 30896.7259655185 573492.922233631
 59385.7579202148 40660.0915873440 575517.235804759
 43128.6952049760 48264.9546675732 576376.968485777
 31096.8719283088 53408.7411535925 576697.919993355
 22146.9542854732 57546.8396025486 576712.990722106
 15771.0458493344 60152.8394391715 576656.665634087
 10990.0921807323 62399.2739860608 576528.879137786
 7774.00307817279 63702.6931112341 576438.662622934
 5269.32780960763 64929.0933746911 576330.154527746
 3747.97805175739 65584.4188404467 576267.851494324
 2460.68450103056 66244.0571229335 576199.331766082