# OOMMF OVF 2.0
#
# Segment count: 1
#
# Begin: Segment
# Begin: Header
#
# Title: Oxs_TimeDriver::Magnetization
# Desc: Oxs vector field output
# Desc:  MIF source file: C:/Users/Victor H. González/Documents/GitHub/Intro-to-magnetism-in-python/domain_wall_conversion_thin_film/drive-46/domain_wall_conversion_thin_film.mif
# Desc:  Iteration: 865, State id: 6095
# Desc:  Stage: 71, Stage iteration: 11
# Desc:  Stage simulation time: 2e-12 s
# Desc:  Total simulation time: 1.44e-10 s
# meshunit: m
# meshtype: rectangular
# xbase: 1.0000000000000001e-09
# ybase: 1.0000000000000001e-09
# zbase: 1.0000000000000001e-09
# xnodes: 125
# ynodes: 25
# znodes: 1
# xstepsize: 2.0000000000000001e-09
# ystepsize: 2.0000000000000001e-09
# zstepsize: 2.0000000000000001e-09
# xmin: 0
# ymin: 0
# zmin: 0
# xmax: 2.5000000000000004e-07
# ymax: 5.0000000000000004e-08
# zmax: 2.0000000000000001e-09
# valuedim: 3
# valuelabels: Magnetization_x Magnetization_y Magnetization_z
# valueunits: A/m A/m A/m
#
# End: Header
#
# Begin: Data Text
 0.000000000000000 -0.000000000000000 -0.000000000000000
 -0.000000000000000 0.000000000000000 0.000000000000000
 0.000000000000000 0.000000000000000 -0.000000000000000
 0.000000000000000 0.000000000000000 0.000000000000000
 0.000000000000000 0.000000000000000 0.000000000000000
 0.000000000000000 -0.000000000000000 0.000000000000000
 -0.000000000000000 -0.000000000000000 0.000000000000000
 -0.000000000000000 -0.000000000000000 -0.000000000000000
 -0.000000000000000 0.000000000000000 -0.000000000000000
 -0.000000000000000 -0.000000000000000 -0.000000000000000
 0.000000000000000 -0.000000000000000 -0.000000000000000
 0.000000000000000 0.000000000000000 0.000000000000000
 0.000000000000000 0.000000000000000 -0.000000000000000
 0.000000000000000 0.000000000000000 0.000000000000000
 0.000000000000000 0.000000000000000 -0.000000000000000
 -0.000000000000000 0.000000000000000 -0.000000000000000
 0.000000000000000 -0.000000000000000 -0.000000000000000
 -0.000000000000000 -0.000000000000000 0.000000000000000
 0.000000000000000 -0.000000000000000 -0.000000000000000
 -0.000000000000000 -0.000000000000000 -0.000000000000000
 0.000000000000000 -0.000000000000000 0.000000000000000
 0.000000000000000 -0.000000000000000 0.000000000000000
 0.000000000000000 0.000000000000000 -0.000000000000000
 -0.000000000000000 -0.000000000000000 0.000000000000000
 0.000000000000000 -0.000000000000000 0.000000000000000
 243563.243097723 276014.606932152 448210.757760018
 175571.118763836 274834.513091652 479625.658894193
 123775.659328438 272728.774091197 496687.630146477
 86132.7149309781 270136.827835352 505971.589781158
 59481.2539297004 267281.946996824 511294.769424191
 40903.1575981043 264181.726364822 514718.318260976
 28089.5249463545 260746.989873348 517321.936380313
 19340.8347619902 256852.412068785 519666.018251296
 13460.3077059019 252380.532259166 522037.246806243
 9640.10993432971 247253.002945889 524569.367018981
 7361.49324542140 241460.622368241 527297.426755279
 6316.26700200136 235093.429735451 530180.331647999
 6333.49194624761 228369.921655232 533110.744370201
 7313.57243609785 221651.568165149 535926.388590963
 9153.54089717873 215432.732645184 538428.222137429
 11690.0792488939 210285.522642640 540410.345028726
 14651.4863826531 206767.139525305 541694.271669271
 17675.5321112031 205298.035375087 542162.606821713
 20343.5690086029 206062.903487445 541778.754664961
 22292.5708052583 208960.797001941 540590.812540507
 23259.2948561477 213633.138169805 538720.602426263
 23178.8649319608 219554.503113256 536338.102676994
 22115.2008387378 226136.654912767 533641.388196911
 20303.4954306366 232850.360809208 530818.686129567
 17981.9036614217 239258.387132422 528045.523915792
 15456.6103885063 245092.234095836 525443.517403355
 12915.5636111631 250172.727025165 523112.602476177
 10567.7408574766 254480.687266774 521083.393192874
 8467.57934375314 258003.095221678 519386.852891071
 6706.31114286262 260853.202347108 517987.096572988
 5239.48028430286 263071.327600247 516881.054441923
 4088.78609689373 264811.587307538 516002.039778833
 3171.42477183705 266104.181569493 515343.096020647
 2484.68223508742 267101.148712387 514830.848639351
 1948.11976431232 267801.553160097 514469.175903108
 1556.50050361805 268342.845320475 514188.384419070
 1249.17372826350 268692.997254137 514006.335361331
 1022.98979212887 268974.944796335 513859.350954806
 840.886252117034 269132.762329491 513777.042257834
 698.734554500845 269278.085796676 513701.104028111
 581.479139023676 269339.290689786 513669.162372761
 479.337419200675 269419.421211671 513627.243932414
 396.482680558381 269438.360311247 513617.379762670
 313.806800205167 269491.856389079 513589.369891220
 252.151121422725 269497.167295620 513586.617075882
 181.105114210823 269542.759513036 513562.720604831
 135.970068106503 269547.928443738 513560.021598089
 74.6421261732404 269593.019648057 513536.365007967
 44.7741649940271 269603.017997294 513531.119487441
 -6.57902684071190 269648.914782388 513507.023041942
 -21.6604448305256 269664.172707684 513499.010212002
 -62.5122243957426 269709.194583839 513475.361092583
 -63.7547184239910 269727.937146845 513465.515743602
 -94.1849237701974 269769.268924336 513443.796995572
 -83.4696342897003 269788.933003651 513433.466635719
 -104.466032518563 269823.776844506 513415.152226942
 -84.6122853367635 269841.922918050 513405.618859641
 -97.9976790066408 269868.230518354 513391.788552707
 -72.4576080479638 269883.121423172 513383.965001616
 -80.5598111103198 269899.998150816 513375.091437349
 -52.9277631329807 269910.881339279 513369.373193713
 -58.1202705638273 269918.678234170 513365.273233740
 -31.6039588212880 269925.781163666 513361.540889434
 -35.8656471107392 269925.905814149 513361.475068072
 -12.8673608389239 269930.194723503 513359.221024579
 -17.4914769512199 269924.725090146 513362.096846911
 0.594795308289200 269927.529178747 513360.622750813
 -4.93109990020634 269918.754553663 513365.236372588
 7.80639148691304 269921.380637127 513363.855578096
 1.43107587787030 269911.396142479 513369.105255049
 9.05554360742741 269914.842883176 513367.292987533
 2.11480769950175 269905.290979089 513372.315086255
 5.05442054570251 269910.128696722 513369.771608508
 -2.47393785823310 269902.130584598 513373.976648383
 -4.28382677359209 269908.561659230 513370.595500652
 -13.5163375842659 269902.831671861 513373.607884959
 -21.6823358362241 269910.903421654 513369.363854119
 -36.1652522649497 269908.002990629 513370.887968616
 -55.7368051373474 269917.918706032 513365.672844233
 -84.1029929488940 269918.589537467 513365.316269799
 -127.506079904402 269931.058290407 513358.751276747
 -189.237035562825 269936.580858262 513355.828352903
 -284.900034993021 269953.169372181 513347.061136893
 -423.149085829008 269965.738176026 513340.356056218
 -634.685139487022 269989.274127391 513327.759848363
 -944.853982062704 270012.541983514 513315.044025162
 -1413.67018294865 270047.920609139 513295.355629967
 -2106.78822402953 270088.427339933 513271.665748676
 -3146.27870041824 270145.200426470 513236.467543842
 -4688.72403213465 270217.217402653 513186.780116282
 -6991.11922117933 270318.428032700 513107.271160686
 -10409.9924871819 270459.716169289 512974.827828856
 -15495.2988752175 270668.853669057 512736.060138398
 -23034.1021723291 270984.556215090 512285.858120274
 -34196.8137950570 271472.005073169 511403.488830317
 -50653.9319101017 272224.202753604 509635.323164723
 -74776.5247084244 273362.119497305 506045.079984454
 -109735.343746543 275006.705972394 498727.847631393
 -159347.975736575 277204.222588132 483907.058853211
 -226879.222318352 279859.678714844 454537.543784718
 -0.000000000000000 -0.000000000000000 -0.000000000000000
 -0.000000000000000 -0.000000000000000 -0.000000000000000
 0.000000000000000 0.000000000000000 -0.000000000000000
 0.000000000000000 -0.000000000000000 0.000000000000000
 -0.000000000000000 -0.000000000000000 -0.000000000000000
 -0.000000000000000 -0.000000000000000 -0.000000000000000
 0.000000000000000 0.000000000000000 0.000000000000000
 0.000000000000000 0.000000000000000 -0.000000000000000
 0.000000000000000 0.000000000000000 -0.000000000000000
 0.000000000000000 0.000000000000000 -0.000000000000000
 -0.000000000000000 0.000000000000000 0.000000000000000
 -0.000000000000000 -0.000000000000000 0.000000000000000
 0.000000000000000 -0.000000000000000 -0.000000000000000
 -0.000000000000000 -0.000000000000000 -0.000000000000000
 -0.000000000000000 0.000000000000000 0.000000000000000
 -0.000000000000000 0.000000000000000 0.000000000000000
 -0.000000000000000 -0.000000000000000 -0.000000000000000
 0.000000000000000 0.000000000000000 -0.000000000000000
 0.000000000000000 -0.000000000000000 0.000000000000000
 -0.000000000000000 -0.000000000000000 -0.000000000000000
 -0.000000000000000 0.000000000000000 0.000000000000000
 0.000000000000000 -0.000000000000000 -0.000000000000000
 0.000000000000000 0.000000000000000 -0.000000000000000
 0.000000000000000 -0.000000000000000 0.000000000000000
 -0.000000000000000 0.000000000000000 0.000000000000000
 241375.549551524 207743.999008309 484747.640483928
 171611.263911467 204807.444906950 514784.891590065
 119896.124604899 200868.656344140 530732.232112603
 82831.1010694569 196831.890561611 539255.241563366
 56770.1954463712 192886.029239857 544033.201774544
 38635.1030003719 188933.234379736 547002.341643034
 26081.0595479222 184773.761023112 549161.575103568
 17415.9803352178 180188.353203472 551025.263485064
 11470.4215397862 174977.555691448 552857.381640099
 7471.34392809342 168991.580929361 554784.665068262
 4950.91377133931 162160.635754191 556847.749986139
 3665.13757991828 154536.771054233 559021.424597172
 3532.44302538384 146335.660540570 561224.907056367
 4547.76343214918 137976.112086275 563331.084124887
 6704.30558553314 130077.135869668 565185.802201859
 9879.02065386614 123407.023683383 566633.136567682
 13788.1368424494 118742.734074586 567547.399242482
 17942.6757484686 116701.569483278 567854.562425208
 21780.3651762173 117564.298771123 567542.290360150
 24721.6648088410 121206.410767949 566654.961398760
 26416.7434984373 127131.819719955 565278.388121844
 26674.4516886182 134601.853370958 563534.217857456
 25661.6575715179 142834.693070199 561551.181804672
 23582.0731745796 151095.736366166 559476.509137564
 20895.4451637836 158888.350866047 557420.731880754
 17854.9198008599 165821.089002061 555503.886828055
 14880.2313397766 171811.573244716 553768.328829349
 12050.3760879971 176739.973118055 552284.139133442
 9625.98169019198 180787.384162813 551020.201266767
 7515.37202912149 183923.031463697 550014.397702885
 5859.00288161682 186435.519242637 549188.009018734
 4484.73195330436 188269.352743212 548575.006719189
 3476.20515327291 189740.869142309 548075.103042323
 2655.41665268890 190732.317211565 547735.457984516
 2083.87037826458 191560.943242915 547448.684817245
 1616.07554649612 192047.927719868 547279.619352240
 1299.27342183052 192506.373088333 547119.372905906
 1034.45240310719 192710.417621551 547048.101037151
 849.571036619773 192969.210568396 546957.184797552
 694.875447463619 193025.768854372 546937.445880506
 570.962293046945 193184.623916961 546881.500038283
 476.219627366099 193172.264199302 546885.956629883
 377.336815573014 193285.691258190 546845.955614349
 318.530697625857 193247.682982949 546859.425775872
 229.088997098651 193342.859683186 546825.827963309
 196.016975356042 193301.502232221 546840.461937586
 110.913036863840 193389.859496031 546809.244565602
 99.5527234472550 193355.427260014 546821.423170630
 18.4098527309301 193439.825601671 546791.581438734
 26.7700020087213 193415.911742895 546800.040570620
 -49.1258921879150 193494.946107530 546772.076296413
 -23.0117858951235 193481.569073665 546776.811779038
 -92.2417208800149 193552.117785613 546751.835106357
 -51.1309639447194 193547.543720497 546753.459710487
 -112.844524245909 193606.303173341 546732.646398278
 -60.4445191201855 193608.178007483 546731.990791725
 -114.580875250407 193652.608531304 546716.246402322
 -55.3169188016342 193658.699286084 546714.098163620
 -102.508150742460 193687.570087489 546703.863792532
 -41.0558274872384 193696.216634530 546700.808464638
 -82.3302140631429 193709.806076553 546695.988874548
 -23.0559870549539 193720.099787730 546692.347126474
 -59.4712046351749 193720.079705110 546692.351494167
 -5.92952373275723 193731.792456523 546688.204149699
 -38.2669010291875 193720.862200125 546692.076112398
 7.12272304271983 193734.196984880 546687.352028461
 -21.4929555461805 193715.580759740 546693.948483947
 14.5364747136082 193730.853788776 546688.536626627
 -10.3344717548249 193707.795186675 546696.707486991
 16.1645552569756 193725.163383183 546690.553065320
 -4.78845322892542 193700.533702167 546699.280428067
 12.6592866318385 193719.852648082 546692.435039801
 -4.43958432206276 193695.946406990 546700.905729807
 4.50374310836468 193716.798922913 546693.517242317
 -9.61076230696461 193695.340414749 546701.120365825
 -9.39953549283102 193717.233743617 546693.363104373
 -23.1248600722856 193699.579516458 546699.618035707
 -34.0373568225428 193722.283622033 546691.572707796
 -53.4524268467224 193709.789287260 546695.998409649
 -82.7330015200708 193733.790033123 546687.490029406
 -121.162153412725 193728.325540764 546689.419325914
 -186.636667542950 193755.405909823 546679.803767685
 -273.024863475623 193760.068557093 546678.114881303
 -415.739148736456 193794.138300891 546665.948382717
 -613.390319624781 193814.382176659 546658.585420366
 -925.671558897446 193862.953688539 546640.922653363
 -1373.96757131296 193908.815242635 546623.712972928
 -2061.58126498101 193986.304877461 546594.057233223
 -3068.30149796047 194077.732737708 546556.876437675
 -4587.47557316109 194214.011076798 546497.825219210
 -6831.74874227390 194395.028592505 546410.010951156
 -10189.0550617468 194658.627079283 546263.857545561
 -15163.0059883043 195035.224434188 546014.051540163
 -22562.2049495003 195593.572347229 545558.522400912
 -33510.1199242695 196425.815984973 544696.218710300
 -49693.9010259775 197676.103047391 543005.225099002
 -73471.2538336026 199538.363665532 539616.916233915
 -108134.734590740 202231.497559051 532737.553181690
 -157880.764027812 205870.907887448 518739.658822797
 -227291.935050563 210027.124787043 490537.443132182
 -0.000000000000000 0.000000000000000 -0.000000000000000
 -0.000000000000000 -0.000000000000000 0.000000000000000
 -0.000000000000000 -0.000000000000000 -0.000000000000000
 0.000000000000000 0.000000000000000 0.000000000000000
 0.000000000000000 -0.000000000000000 -0.000000000000000
 -0.000000000000000 0.000000000000000 0.000000000000000
 0.000000000000000 0.000000000000000 -0.000000000000000
 -0.000000000000000 0.000000000000000 0.000000000000000
 0.000000000000000 0.000000000000000 0.000000000000000
 0.000000000000000 -0.000000000000000 -0.000000000000000
 -0.000000000000000 0.000000000000000 0.000000000000000
 -0.000000000000000 0.000000000000000 0.000000000000000
 -0.000000000000000 0.000000000000000 -0.000000000000000
 -0.000000000000000 -0.000000000000000 0.000000000000000
 -0.000000000000000 0.000000000000000 0.000000000000000
 0.000000000000000 0.000000000000000 -0.000000000000000
 -0.000000000000000 0.000000000000000 -0.000000000000000
 -0.000000000000000 0.000000000000000 0.000000000000000
 0.000000000000000 -0.000000000000000 0.000000000000000
 0.000000000000000 0.000000000000000 -0.000000000000000
 -0.000000000000000 -0.000000000000000 0.000000000000000
 -0.000000000000000 0.000000000000000 -0.000000000000000
 -0.000000000000000 -0.000000000000000 -0.000000000000000
 -0.000000000000000 0.000000000000000 -0.000000000000000
 0.000000000000000 -0.000000000000000 0.000000000000000
 238055.924830422 156554.518204663 505193.091285737
 166759.376225075 153241.575388762 533955.363315507
 115014.991353278 148347.259368406 548784.695852470
 78496.3955134471 143244.925609833 556524.219759059
 53040.6625157122 138306.625124417 560765.517455013
 35340.0570608957 133458.420107642 563329.326832276
 22966.1745006488 128448.589370296 565131.413670827
 14216.3651851606 122967.360286885 566636.500117137
 7938.99916628066 116704.974177675 568081.791025224
 3409.39667572680 109387.442848099 569581.217528687
 234.146159029282 100822.571672143 571169.636987989
 -1700.85938128349 90960.2224080545 572820.517279927
 -2300.52054941377 79982.0420024695 574454.158799740
 -1333.48812003935 68385.0390274327 575952.869813711
 1409.83602109614 57041.4515651733 577186.525454061
 5963.31091409967 47132.7985327058 578050.982375618
 11984.3318492965 39960.0974275718 578497.680551707
 18765.0556484069 36594.7993283206 578540.139790345
 25278.9998663552 37577.1721679075 578229.131311819
 30568.2827607973 42728.6172988512 577615.655391009
 33850.2362069721 51234.9640506327 576740.097416039
 34919.4293067331 61902.9303379683 575628.926195049
 33832.6154523325 73442.5313609591 574335.745639212
 31188.6495601515 84810.0473358694 572917.554286392
 27439.6487961108 95187.6927927051 571477.356344718
 23344.7760055218 104250.483189864 570076.186301386
 19165.8117756242 111738.743029638 568812.029553822
 15427.9381463062 117865.130548739 567688.109550731
 12068.9908381852 122589.785866161 566768.104132048
 9380.80900437550 126348.092773024 565993.074052185
 7112.57813200686 129070.875219065 565411.461152407
 5437.26664421096 131249.814359604 564928.245321483
 4060.25800339824 132703.627805037 564600.089862132
 3109.30713367627 133930.375840583 564316.388771714
 2325.99670705286 134638.482039727 564151.636435947
 1814.08253396399 135326.653142710 563988.835043526
 1382.78057191863 135619.304790321 563919.756779349
 1106.25231448773 136018.130784384 563824.302689889
 870.036132179961 136091.333964964 563807.051975022
 705.654181507264 136342.847897310 563746.512077394
 575.596955771936 136308.795827913 563754.894318523
 457.178349240300 136489.926718029 563711.176838338
 387.955703886137 136411.008548020 563730.331131193
 283.934247928080 136560.575639619 563694.179996848
 254.471207851673 136470.329680307 563716.049409055
 152.162908333215 136605.488238317 563683.348547410
 153.179497606099 136521.011733061 563703.813976296
 49.2712734965752 136647.089442575 563673.283488950
 76.2356207386918 136576.228222294 563690.454125934
 -28.4477297398159 136692.558493403 563662.260261634
 21.1159529733752 136638.006550126 563675.487066915
 -82.0809312391252 136741.369335843 563650.415749762
 -13.6454355706908 136703.003758830 563659.727652344
 -112.988578548545 136789.659952382 563638.692926322
 -30.2697686909588 136765.919046422 563644.464597257
 -123.887808819342 136832.821069802 563628.214100297
 -32.2364253340887 136821.576004073 563630.956655660
 -118.934411623576 136867.059746341 563619.901893996
 -24.0486951351941 136866.182311794 563620.127001383
 -103.225579156404 136890.270334091 563614.268123457
 -10.5934608476586 136897.958008394 563612.410243875
 -82.0175049764140 136902.328339794 563611.342831452
 3.63509776140400 136917.205075135 563607.734990569
 -59.9256214186470 136904.882474810 563610.725202669
 15.2000779501536 136925.915200670 563605.618775591
 -40.3378718468038 136900.779271603 563611.723625125
 22.0876098523870 136927.088633962 563605.333465151
 -25.1864745545852 136893.322788233 563613.535626708
 23.6863319281331 136923.986325720 563606.087092423
 -15.1182802829312 136885.590983111 563615.413870702
 20.3879921498929 136919.526568984 563607.170668059
 -10.0296880068290 136879.990766465 563616.774082512
 12.8549102009531 136915.976935996 563608.033206069
 -9.93828276021160 136878.160587953 563617.218558206
 0.934811708022707 136915.015939934 563608.266803543
 -16.2999852825829 136881.258950564 563616.465943304
 -18.0271847578625 136918.182217085 563607.497336036
 -34.2343939351281 136890.642620515 563614.186115776
 -52.2555039845194 136927.723005626 563605.177355440
 -76.8893910990339 136908.969476905 563609.730367382
 -121.887180371433 136947.930220445 563600.256877028
 -174.813300304055 136941.895985931 563601.709156465
 -272.888624779057 136987.262443792 563590.645291380
 -396.734080646730 137000.852679360 563587.268279898
 -608.054383080121 137062.010762320 563572.209637466
 -895.849985759783 137108.060102799 563560.624341029
 -1356.00153188631 137203.282725360 563536.529844543
 -2012.62329660597 137306.495255146 563509.428233650
 -3024.05998467732 137471.464351166 563464.685273492
 -4501.98631421989 137681.214699950 563403.598886245
 -6735.36788875978 137988.011555461 563306.260826536
 -10032.7487321742 138407.017686809 563154.367298986
 -14967.0291284231 139006.780415440 562897.062559046
 -22275.2521746440 139853.670746459 562445.343050591
 -33144.3793871953 141064.145880870 561606.941607686
 -49217.2475594122 142784.962520896 559991.175841711
 -72947.5595549454 145200.648632687 556772.327968645
 -107719.998440054 148480.009283238 550227.306464632
 -158095.914229076 152589.693873991 536770.031975999
 -229329.371186443 156778.526591215 509144.903844788
 0.000000000000000 -0.000000000000000 0.000000000000000
 0.000000000000000 -0.000000000000000 0.000000000000000
 0.000000000000000 0.000000000000000 0.000000000000000
 -0.000000000000000 -0.000000000000000 -0.000000000000000
 0.000000000000000 0.000000000000000 -0.000000000000000
 -0.000000000000000 0.000000000000000 0.000000000000000
 0.000000000000000 0.000000000000000 -0.000000000000000
 -0.000000000000000 0.000000000000000 0.000000000000000
 -0.000000000000000 0.000000000000000 0.000000000000000
 -0.000000000000000 0.000000000000000 0.000000000000000
 -0.000000000000000 -0.000000000000000 -0.000000000000000
 -0.000000000000000 0.000000000000000 0.000000000000000
 0.000000000000000 0.000000000000000 -0.000000000000000
 -0.000000000000000 0.000000000000000 0.000000000000000
 -0.000000000000000 0.000000000000000 0.000000000000000
 0.000000000000000 0.000000000000000 0.000000000000000
 0.000000000000000 -0.000000000000000 0.000000000000000
 0.000000000000000 0.000000000000000 -0.000000000000000
 0.000000000000000 0.000000000000000 -0.000000000000000
 -0.000000000000000 0.000000000000000 0.000000000000000
 0.000000000000000 0.000000000000000 -0.000000000000000
 0.000000000000000 -0.000000000000000 0.000000000000000
 0.000000000000000 -0.000000000000000 0.000000000000000
 -0.000000000000000 0.000000000000000 0.000000000000000
 0.000000000000000 0.000000000000000 -0.000000000000000
 231498.912058867 120948.506909684 517860.707518807
 159524.967675702 117291.051351210 545155.568586613
 108328.130036284 111507.649119890 558776.395735000
 72766.6641944530 105384.506856754 565684.645625609
 48171.0421163705 99467.8005298359 569373.082749070
 31000.3825647608 93698.3830438730 571541.415206110
 18750.5132799800 87750.9341010569 573016.746540736
 9703.65550349181 81192.4062794167 574206.959407867
 2728.95514788205 73548.9738665443 575311.308116726
 -2857.47659549263 64350.2634125055 576412.073456349
 -7347.72395690976 53181.6738013680 577509.931104512
 -10675.8583961360 39786.7515124856 578535.254285847
 -12426.8939361631 24219.7685862512 579360.833260868
 -11939.8475996889 7059.05545281848 579834.122638027
 -8501.75952314690 -10429.8208076760 579843.891856188
 -1739.35211544749 -26282.8227831249 579401.577388920
 8043.00960458970 -38194.6759734787 578685.127443052
 19630.3223337108 -44132.7307700276 577985.252856728
 31224.8337697847 -43046.6831554779 577556.917390279
 40854.8118547324 -35185.3553519327 577488.419898678
 47178.7309239205 -21992.9255466080 577659.483237581
 49538.4107271296 -5590.75068561244 577853.518955627
 48360.3338868496 11863.9116730910 577858.568947598
 44351.9842539430 28560.9458284350 577596.029995120
 38808.6387007728 43445.9750245853 577067.012413945
 32495.1983736358 55884.7959956876 576386.113346929
 26439.3321066805 65986.1366455658 575627.302591135
 20814.9147509462 73753.5915563333 574914.904187092
 16161.9352317580 79798.0231718395 574256.969785680
 12209.9545057662 84161.3586268716 573731.455234107
 9228.50796648628 87551.5195053825 573279.657822437
 6795.08370866982 89826.5278447082 572961.623263510
 5087.77007149538 91679.7934923863 572685.716655211
 3704.49928346341 92776.6830790167 572519.662336513
 2795.39349149006 93795.2695714912 572358.832535359
 2045.69885685443 94256.8730044994 572286.167059454
 1577.68745332015 94839.9092886140 572191.316351819
 1181.61956700453 94970.3949158359 572170.628278601
 932.480323652817 95333.9241556423 572110.630372774
 726.998876414248 95299.7051389463 572116.629432377
 573.410556830521 95556.8420471358 572073.912303569
 472.449058613804 95448.2778021201 572092.128119673
 352.245160990395 95655.6527965254 572057.577531683
 313.838854377628 95521.5420431059 572080.008836947
 199.077588843333 95705.0078986467 572049.396321011
 203.874729510207 95571.3182780262 572071.745113928
 84.3625841821516 95740.1855212711 572043.538342412
 123.191829536343 95620.2132243656 572063.597554240
 -2.73226101359794 95775.3038569854 572037.665860944
 64.6113092904112 95675.2308539637 572054.408274615
 -65.6946373851445 95813.5389476809 572031.259144582
 25.2419568374424 95735.5038191949 572044.327540557
 -106.156081809608 95852.9262811054 572024.654411184
 2.88765651616633 95796.7586445367 572034.073307580
 -126.230061743247 95889.6904903680 572018.488620458
 -5.30687546079927 95853.9427083523 572024.493915340
 -129.214985170099 95920.1719463403 572013.377393635
 -3.06815659744128 95902.7755851193 572016.308880837
 -119.446753415235 95941.9020025878 572009.735207889
 5.37250899558822 95940.5892883684 572009.967831101
 -101.727768793018 95954.0768192043 572007.696445805
 15.8921878403838 95966.6140432285 572005.602014978
 -80.6210936843629 95957.5484871954 572007.117428242
 25.0900437956558 95981.8088624974 572003.052210364
 -59.8384785470964 95954.4442807262 572007.640720064
 30.7117646086194 95988.3678877521 572001.951296526
 -41.8855977843925 95947.5697102297 572008.795485085
 31.7705904893160 95989.0812884353 572001.831521571
 -28.0418147569531 95939.7835621255 572010.102309137
 28.3355359561240 95986.7433738755 572002.224028522
 -18.6744923328235 95933.5226018062 572011.152769307
 21.0123331001450 95983.7700865705 572002.723278876
 -13.8618859503841 95930.6071858804 572011.641850756
 10.1251786949718 95982.1339712239 572002.998117852
 -14.3676821018846 95932.4056389787 572011.340221405
 -5.53127236377315 95983.6804426236 572002.738680588
 -23.2366709551290 95940.4093355090 572009.997566994
 -30.8484268251630 95990.8893877589 572001.528147366
 -48.7967590296049 95957.3070944501 572007.161523401
 -78.7054314019814 96008.2285828493 571998.613503424
 -110.961109731704 95988.7901807317 572001.870492808
 -179.278665013812 96044.4639305597 571992.507649752
 -255.114604292107 96046.6383388361 571992.113739645
 -400.747293265366 96116.7422920222 571980.254250770
 -583.080719105934 96154.2677829517 571973.790312109
 -895.500913247949 96258.1388064000 571955.915077064
 -1322.10452307036 96357.1423623077 571938.417275322
 -2002.91485747639 96532.0625202162 571906.941064424
 -2977.92345721410 96742.8238306098 571867.080718206
 -4476.97687538188 97060.2044216824 571803.526917837
 -6673.02250914151 97479.9036539008 571710.712820932
 -9988.19585706712 98076.4986968888 571560.352322377
 -14890.3517139245 98891.7886592157 571313.129169650
 -22222.9746015584 100025.291856710 570877.465301302
 -33092.4153581354 101579.833078576 570075.810359897
 -49251.1228868342 103696.248223560 568525.650255768
 -73133.5280805093 106516.851294836 565425.191745761
 -108288.892894286 110119.259447540 559059.267318283
 -159409.234953272 114327.342731842 545818.609535704
 -231991.432051404 118205.154676199 518273.592673517
 -0.000000000000000 0.000000000000000 -0.000000000000000
 0.000000000000000 0.000000000000000 -0.000000000000000
 -0.000000000000000 0.000000000000000 0.000000000000000
 0.000000000000000 0.000000000000000 -0.000000000000000
 0.000000000000000 0.000000000000000 0.000000000000000
 -0.000000000000000 0.000000000000000 0.000000000000000
 0.000000000000000 0.000000000000000 0.000000000000000
 0.000000000000000 0.000000000000000 0.000000000000000
 -0.000000000000000 -0.000000000000000 0.000000000000000
 -0.000000000000000 -0.000000000000000 0.000000000000000
 -0.000000000000000 -0.000000000000000 -0.000000000000000
 0.000000000000000 0.000000000000000 0.000000000000000
 -0.000000000000000 -0.000000000000000 0.000000000000000
 0.000000000000000 0.000000000000000 -0.000000000000000
 0.000000000000000 0.000000000000000 0.000000000000000
 0.000000000000000 0.000000000000000 -0.000000000000000
 -0.000000000000000 -0.000000000000000 0.000000000000000
 0.000000000000000 -0.000000000000000 -0.000000000000000
 0.000000000000000 -0.000000000000000 -0.000000000000000
 0.000000000000000 0.000000000000000 -0.000000000000000
 0.000000000000000 -0.000000000000000 0.000000000000000
 0.000000000000000 -0.000000000000000 0.000000000000000
 -0.000000000000000 0.000000000000000 -0.000000000000000
 0.000000000000000 0.000000000000000 0.000000000000000
 -0.000000000000000 0.000000000000000 -0.000000000000000
 219000.650804114 98191.1150923633 528012.518662477
 147749.678327862 93548.2643256076 553008.819817261
 98539.7066580842 86426.0241809396 564995.989858348
 64982.2800903573 79090.8867538095 570895.730328012
 41860.9005696302 72157.9065584867 573969.425600873
 25487.2601392951 65476.2935679512 575728.455568418
 13347.5797058310 58573.3403704960 576880.408675696
 3748.04267558419 50829.0696295081 577756.313558494
 -4433.14190432388 41535.8773914298 578493.835872242
 -11852.3329358100 29921.3304672324 579106.411799290
 -18723.7385878066 15203.5095226562 579498.295865907
 -24744.0349445427 -3279.37820076074 579462.663519644
 -29028.0902566310 -25791.6063440346 578698.680677818
 -30118.4625999183 -51785.6158160366 576897.849021099
 -26322.4549775519 -79427.0006300668 573932.469838452
 -16393.1699817494 -105444.919693011 570098.792218405
 -471.248629633380 -125643.953167619 566227.317388646