# ODT 1.0
# Table Start
# Title: mmArchive Data Table, Fri Apr 16 16:51:06 CEST 2021
# Columns: {Anv_SpinTEvolve:evolver:Total energy} {Anv_SpinTEvolve:evolver:Energy calc count} {Anv_SpinTEvolve:evolver:Max dm/dt} Anv_SpinTEvolve:evolver:dE/dt {Anv_SpinTEvolve:evolver:Delta E} {Anv_SpinTEvolve:evolver:average u} Oxs_UniformExchange:exchange:Energy {Oxs_UniformExchange:exchange:Max Spin Ang} {Oxs_UniformExchange:exchange:Stage Max Spin Ang} {Oxs_UniformExchange:exchange:Run Max Spin Ang} Oxs_DMExchange6Ngbr:dmi:Energy Oxs_UniaxialAnisotropy:uniaxialanisotropy:Energy Oxs_TimeDriver::Iteration {Oxs_TimeDriver::Stage iteration} Oxs_TimeDriver::Stage Oxs_TimeDriver::mx   Oxs_TimeDriver::my   Oxs_TimeDriver::mz   {Oxs_TimeDriver::Last time step} {Oxs_TimeDriver::Simulation time}
# Units:                     J                                        {}                                    deg/ns                             J/s                              J                                 m/s                                  J                                      deg                                            deg                                              deg                                     J                                       J                                    {}                            {}                          {}                   {}                   {}                   {}                          s                                 s                
                    -5.9390423246399996e-19                      91                                      5340.5959561999998               1.8898931826399999e-09             2.0537749999799999e-22                400                                 9.0965336754499992e-19                     25.997124382700001                             25.997124382700001                               25.997124382700001                     -2.3750789114899998e-18                     8.7152131148e-19                     13                            13                          0                     0.0040662628528699996 -0.00138872824778     0.870485144105             1.11012387322e-13                2e-12                     
                    -5.8913006305800004e-19                      158                                     5775.5715847299998               2.73000858401e-09               1.4746467882499999e-22                400                                 9.2006781222799999e-19                     27.523414025499999                             27.523414025499999                               27.523414025499999                     -2.3859486915700001e-18                     8.7675081628700002e-19                  25                            11                          1                     0.0067280074873400002 -0.00114219650766     0.87038891440300004        5.4332866139000001e-14              3.9999999999999999e-12       
                    -5.83241734761e-19                        231                                     6254.8928638099997               3.0330500424200002e-09             2.40441431174e-22                  400                                 9.3163869804900009e-19                     28.151940994699999                             28.151940994699999                               28.151940994699999                     -2.39983281258e-18                       8.8495237976600009e-19                  37                            11                          2                     0.0082894699750400008  3.6900168224799998e-05  0.87047760828499998        7.9900213700600003e-14              6.0000000000000003e-12       
                    -5.7698735652900005e-19                      298                                     6425.2687026200001               3.0467441882e-09                2.2625135985599998e-22                400                                 9.4311245361999994e-19                     28.456374004800001                             28.456374004800001                               28.456374004800001                     -2.41565715319e-18                       8.9555734304300003e-19                  49                            11                          3                     0.0088669910079900004  0.00151107528416     0.870860133752             7.5560162959500005e-14              7.9999999999999998e-12       
                    -5.7065902698300003e-19                      371                                     6348.5786022100001               3.1385341263700001e-09             3.6354397598999998e-22                400                                 9.5471557162299998e-19                     28.7166740698                                  28.7166740698                                    28.7166740698                          -2.43183686709e-18                       9.0646226848199998e-19                  61                            11                          4                     0.0088138585125900008  0.0028426084680100001  0.87155142891899995        1.1697750992300001e-13              9.9999999999999994e-12       
                    -5.6424318104600004e-19                      444                                     6324.8538920499996               3.2227390655199999e-09             3.5049822008e-22                   400                                 9.6719030858800002e-19                     28.707577960999998                             28.744134970899999                               28.744134970899999                     -2.4468913101399999e-18                     9.1545782050999998e-19                  73                            11                          5                     0.00850959167741     0.0038221840466099999  0.87251288038800001        1.09438430966e-13                1.2000000000000001e-11       
                    -5.5761997809000002e-19                      517                                     6071.7668524999999               3.2897815050600001e-09             2.4019746632499999e-22                400                                 9.8096110815200002e-19                     28.467556795299998                             28.707577960999998                               28.744134970899999                     -2.4602780258299999e-18                     9.2169693959199992e-19                  85                            11                          6                     0.0082296394655699996  0.0044192724510299999  0.87368451058399998        7.4056625399899995e-14              1.4e-11                   
                    -5.5068215430299998e-19                      584                                     5957.4838845900003               3.5163035386600001e-09             3.7474908315800001e-22                400                                 9.9592812171299993e-19                     28.011501145299999                             28.467556795299998                               28.744134970899999                     -2.47246941144e-18                       9.2585913542400005e-19                  97                            11                          7                     0.0081180046968400005  0.0047105168104299997  0.87500462318600003        1.07833660372e-13                1.6e-11                   
                    -5.4333435909500001e-19                      657                                     5742.6685186100003               3.7344994381900001e-09             3.8373435454099999e-22                400                                 1.01176987725e-18                       27.368102252100002                             28.011501145299999                               28.744134970899999                     -2.48430702296e-18                       9.2920278661000004e-19                  109                           11                          8                     0.0082136525804299993  0.0048211023866599999  0.87642247770000004        1.0381227556399999e-13              1.7999999999999999e-11       
                    -5.3555964714200002e-19                      730                                     5661.9126069100002               3.9476071307300001e-09             4.0892784175100002e-22                400                                 1.0281594963600001e-18                     26.614695031899998                             27.368102252100002                               28.744134970899999                     -2.4964218473599998e-18                     9.3270270386000007e-19                  121                           11                          9                     0.0084898106107699992  0.0048803406048500003  0.87790511360199996        1.04499858212e-13                1.9999999999999999e-11       
                    -5.2739237406799998e-19                      803                                     5692.68095911                    4.14686111868e-09               4.5744374668800001e-22                400                                 1.0448625569999999e-18                     25.827011779700001                             26.614695031899998                               28.744134970899999                     -2.5090225776600001e-18                     9.3676764658700005e-19                  133                           11                          10                    0.0088887229022000004  0.00499027191804     0.87943613361700002        1.1091176233599999e-13              2.2000000000000002e-11       
                    -5.1889134729200003e-19                      870                                     5748.9094099900003               4.28604561789e-09               4.05705131244e-22                  400                                 1.06173742725e-18                       26.179594529100001                             26.179594529100001                               28.744134970899999                     -2.5219831062100001e-18                     9.4135433167500006e-19                  145                           11                          11                    0.0093474497006800009  0.00520807752571     0.88100690886199995        9.5232848492099997e-14              2.4000000000000001e-11       
                    -5.1012084553699997e-19                      943                                     5826.91022376                    4.3724793002099996e-09             3.6934198299199998e-22                400                                 1.0787360048300001e-18                     26.537179408699998                             26.537179408699998                               28.744134970899999                     -2.5350490487400002e-18                     9.4619219837299993e-19                  157                           11                          12                    0.00981403916913     0.00554388262689     0.88260552451600005        8.5289270535399998e-14              2.6000000000000001e-11       
                    -5.0113137413000002e-19                      1016                                    5856.7749546300001               4.4968900179300002e-09             4.7982295819599996e-22                400                                 1.09590453918e-18                       26.8125799912                                  26.8125799912                                    28.744134970899999                     -2.54801651604e-18                       9.5098060273300004e-19                  169                           11                          13                    0.0102552918211      0.0059726852215099997  0.88420931145199999        1.07616945325e-13                2.8e-11                   
                    -4.91928651003e-19                        1089                                    5851.0688482400001               4.6266112106599998e-09             5.13725942963e-22                  400                                 1.11337422038e-18                       27.0142608381                                  27.0142608381                                    28.744134970899999                     -2.5608269125499999e-18                     9.5552404116599998e-19                  181                           11                          14                    0.0106584126556      0.0064540716768900002  0.88578303225800004        1.1164001453e-13                 3e-11                     
                    -4.82489339571e-19                        1156                                    5793.6991035600004               4.7429039427400002e-09             4.5619172109900003e-22                400                                 1.1312934320699999e-18                     27.1566930575                                  27.1566930575                                    28.744134970899999                     -2.5735756715000001e-18                     9.5979289985700009e-19                  193                           11                          15                    0.011028446849400001  0.0069510261635200004  0.88728151229700003        9.6792778815800002e-14              3.1999999999999999e-11       
                    -4.7277447177100003e-19                      1229                                    5735.4962745299999               4.8559310447499998e-09             4.18638110819e-22                  400                                 1.1497765209499999e-18                     27.251531084300002                             27.251531084300002                               28.744134970899999                     -2.5864613911500002e-18                     9.6391039843699998e-19                  205                           11                          16                    0.0113824980475      0.0074414241444199997  0.88865459159600002        8.70610435206e-14                3.3999999999999999e-11       
                    -4.6275005429399998e-19                      1302                                    5650.6519111600001               5.0506714423899999e-09             5.6537295247999999e-22                400                                 1.1688721157699999e-18                     27.3073072555                                  27.3073072555                                    28.744134970899999                     -2.5997133319299999e-18                     9.6809116186699992e-19                  217                           11                          17                    0.0117419818149      0.0079206940599299992  0.88985270766299995        1.12786516739e-13                3.5999999999999998e-11       
                    -4.5237821541499999e-19                      1375                                    5557.1915414900004               5.2440032084300002e-09             5.7869397381200002e-22                400                                 1.18857876416e-18                       27.336766517600001                             27.3368642997                                    28.744134970899999                     -2.6135276717900002e-18                     9.7257069221600009e-19                  229                           11                          18                    0.012125009188699999  0.0083979751804700003  0.89083175248400004        1.10925392616e-13                3.7999999999999998e-11       
                    -4.4164966972400002e-19                      1442                                    5481.8391831400004               5.4097395936199996e-09             5.23829648737e-22                  400                                 1.20882720463e-18                       27.350413827699999                             27.350642934500002                               28.744134970899999                     -2.6280290919e-18                        9.775522175470001e-19                  241                           11                          19                    0.0125410432143      0.0088894825952200007  0.89155627111400004        9.7381322172999998e-14              3.9999999999999998e-11       
                    -4.30583014284e-19                        1515                                    5355.1838964299995               5.538062008e-09                 4.8552464058200001e-22                400                                 1.2294944764300001e-18                     27.351372192300001                             27.352069479299999                               28.744134970899999                     -2.6432580536799999e-18                     9.8318056296500004e-19                  253                           11                          20                    0.012988881907       0.00941219945137     0.89200062651099998        8.8398029249599998e-14              4.1999999999999997e-11       
                    -4.19227788705e-19                        1588                                    5285.51501018                    5.6968603206799998e-09             6.3777960083699997e-22                400                                 1.2504114359900001e-18                     27.338510429100001                             27.351372192300001                               28.744134970899999                     -2.6591772617799998e-18                     9.8953803708600009e-19                  265                           11                          21                    0.0134576259869      0.0099795009468      0.89214866200200005        1.12653398491e-13                4.4000000000000003e-11       
                    -4.0763610815e-19                         1661                                    5084.6638353999997               5.8154602436499997e-09             6.5091959446900003e-22                400                                 1.27139765489e-18                       27.312975211099999                             27.338510429100001                               28.744134970899999                     -2.6756880058299999e-18                     9.9665424279400008e-19                  277                           11                          22                    0.0139293864907      0.0105990029754      0.89199270962499999        1.1236805611500001e-13              4.6000000000000003e-11       
                    -3.95873405912e-19                        1728                                    5010.5039630800002               5.8745177485299998e-09             5.7308683583399996e-22                400                                 1.29225500493e-18                       27.270836452000001                             27.312975211099999                               28.744134970899999                     -2.6926492627600001e-18                     1.00452085191e-18                    289                           11                          23                    0.014382368655599999  0.0112721123997      0.89153274327300003        9.7978431668599995e-14              4.8000000000000002e-11       
                    -3.84009418966e-19                        1801                                    4762.3932820600003               5.8807235444099997e-09             5.2098733700300002e-22                400                                 1.3127808344400001e-18                     27.297175705400001                             27.297175705400001                               28.744134970899999                     -2.7098957492400002e-18                     1.01310549584e-18                    301                           11                          24                    0.0147932548308      0.0119945029432      0.89077600482499997        8.9171121446999999e-14              5.0000000000000002e-11       
                    -3.7211867580799998e-19                      1874                                    4600.5136576799996               5.9060756175999998e-09             6.7472998832300001e-22                400                                 1.3327762142199999e-18                     27.418237162499999                             27.418237162499999                               28.744134970899999                     -2.72725581377e-18                       1.0223609237300001e-18                  313                           11                          25                    0.0151384527245      0.0127567862731      0.88973716212800003        1.1474066617700001e-13              5.2000000000000001e-11       
                    -3.6026064673499999e-19                      1947                                    4375.7613644800003               5.8864950028599997e-09             6.6028680046799997e-22                400                                 1.3520815552e-18                        27.4735138313                                  27.4735138313                                    28.744134970899999                     -2.7445701826899998e-18                     1.0322279807500001e-18                  325                           11                          26                    0.015394240052700001  0.0135448082498      0.88843885996399996        1.12459706774e-13                5.4000000000000001e-11       
                    -3.48501168844e-19                        2014                                    4058.57136515                    5.8174652710999997e-09             5.8848884352099996e-22                400                                 1.37057840679e-18                       27.462188516600001                             27.477389547200001                               28.744134970899999                     -2.7617105849000001e-18                     1.04263100927e-18                    337                           11                          27                    0.015536314829       0.014339240983799999  0.88691254557599997        1.0142240723099999e-13              5.6e-11                   
                    -3.3690864993500001e-19                      2087                                    4158.8697473599996               5.6882750723299998e-09             4.85513441006e-22                  400                                 1.3882173885199999e-18                     27.384611864                                   27.462188516600001                               28.744134970899999                     -2.7785942167899998e-18                     1.0534681783400001e-18                  349                           11                          28                    0.0155393958552      0.0151144005653      0.88519937667000004        8.5764743101599999e-14              5.8e-11                   
                    -3.2555804902500002e-19                      2154                                    4272.4292165200004               5.5040151546199996e-09             4.7861903328500001e-22                400                                 1.4050327523200001e-18                     27.289727011499998                             27.384611864                                     28.744134970899999                     -2.7951891355100001e-18                     1.0645983341600001e-18                  361                           11                          29                    0.015377505868       0.015836526764700001  0.88335111899700003        8.7794991114800001e-14              6e-11                     
                    -3.1454037193900001e-19                      2227                                    4322.1344974000003               5.3718960520699996e-09             6.2547219020000004e-22                400                                 1.4211387828799999e-18                     27.448388552200001                             27.448388552200001                               28.744134970899999                     -2.8115053408800001e-18                     1.07582618607e-18                    373                           11                          30                    0.015025319253       0.016461919625800001  0.88143092210700003        1.1696755020900001e-13              6.2000000000000006e-11       
                    -3.0392810346200002e-19                      2300                                    4427.7683597499999               5.1265176247100003e-09             4.7250512841000001e-22                400                                 1.43675837375e-18                       27.5312058429                                  27.5312058429                                    28.744134970899999                     -2.82757148612e-18                       1.08688500891e-18                    385                           11                          31                    0.014460757331300001  0.0169352267505      0.87951376429299999        9.2729611436500001e-14              6.3999999999999999e-11       
                    -2.93834064374e-19                        2373                                    4441.8676660800002               4.8547479200799998e-09             5.2629178509899996e-22                400                                 1.45216344078e-18                       27.5407389298                                  27.5454309713                                    28.744134970899999                     -2.8434071248500001e-18                     1.09740961969e-18                    397                           11                          32                    0.013669131781900001  0.017188033277200001  0.87768622424300002        1.0889634760699999e-13              6.6000000000000005e-11       
                    -2.84384945619e-19                        2446                                    5097.6530047200004               4.5039667070600001e-09             4.80918424915e-22                  400                                 1.46771944371e-18                       27.4830328034                                  27.5407389298                                    28.744134970899999                     -2.8590095274500002e-18                     1.1069051381199999e-18                  409                           11                          33                    0.0126498067199      0.017138476495700002  0.87604428512400001        1.07074310524e-13                6.7999999999999998e-11       
                    -2.7573917942299998e-19                      2513                                    5867.5662238900004               4.0314889736399999e-09             3.6377550747999999e-22                400                                 1.48389162259e-18                       27.3673787725                                  27.4830328034                                    28.744134970899999                     -2.87437652871e-18                       1.1147457266900001e-18                  421                           11                          34                    0.011427040151       0.016695378532699999  0.87468686190199996        9.0809805144699996e-14              7.0000000000000004e-11       
                    -2.6804904310999998e-19                      2586                                    6408.3032207300002               3.4522698981099999e-09             2.8268311373599999e-22                400                                 1.5012118654699999e-18                     27.207381929899999                             27.3673787725                                    28.744134970899999                     -2.8895617516499999e-18                     1.12030084308e-18                    433                           11                          35                    0.010064656956299999  0.015775655878800001  0.87370197110500003        8.3442441733899999e-14              7.1999999999999997e-11       
                    -2.6135753486299998e-19                      2659                                    6755.2750685299998               3.0228975007500001e-09             3.1843018599199998e-22                400                                 1.5200576866299999e-18                     27.022092495199999                             27.207381929899999                               28.744134970899999                     -2.90468366327e-18                       1.12326844177e-18                    445                           11                          36                    0.00867519138822     0.0143448318831      0.87314594530900003        1.0751892685e-13                 7.4000000000000003e-11       
                    -2.5541774162200002e-19                      2732                                    6933.1557216000001               2.7939914170199999e-09             3.06758916431e-22                  400                                 1.5403368927700001e-18                     26.836709826900002                             27.022092495199999                               28.744134970899999                     -2.9197719901299999e-18                     1.12401735574e-18                    457                           11                          37                    0.0074034014087399997  0.012470394530600001  0.87302480772000002        1.11482053443e-13                7.5999999999999996e-11       
                    -2.4972185262400002e-19                      2799                                    6994.22935022                    2.7960127613999999e-09             2.6626423695700002e-22                400                                 1.56136044263e-18                       26.794351343500001                             26.836709826900002                               28.744134970899999                     -2.93455590686e-18                       1.12347361161e-18                    469                           11                          38                    0.0063776251520899999  0.010342075962399999  0.87328992774600001        9.7355939594999998e-14              7.8000000000000002e-11       