# OOMMF OVF 2.0
#
# Segment count: 1
#
# Begin: Segment
# Begin: Header
#
# Title: Oxs_TimeDriver::Magnetization
# Desc: Oxs vector field output
# Desc:  MIF source file: C:/Users/Victor H. González/Documents/GitHub/Intro-to-magnetism-in-python/domain_wall_conversion_thin_film/drive-46/domain_wall_conversion_thin_film.mif
# Desc:  Iteration: 1093, State id: 7694
# Desc:  Stage: 90, Stage iteration: 11
# Desc:  Stage simulation time: 2e-12 s
# Desc:  Total simulation time: 1.82e-10 s
# meshunit: m
# meshtype: rectangular
# xbase: 1.0000000000000001e-09
# ybase: 1.0000000000000001e-09
# zbase: 1.0000000000000001e-09
# xnodes: 125
# ynodes: 25
# znodes: 1
# xstepsize: 2.0000000000000001e-09
# ystepsize: 2.0000000000000001e-09
# zstepsize: 2.0000000000000001e-09
# xmin: 0
# ymin: 0
# zmin: 0
# xmax: 2.5000000000000004e-07
# ymax: 5.0000000000000004e-08
# zmax: 2.0000000000000001e-09
# valuedim: 3
# valuelabels: Magnetization_x Magnetization_y Magnetization_z
# valueunits: A/m A/m A/m
#
# End: Header
#
# Begin: Data Text
 0.000000000000000 -0.000000000000000 -0.000000000000000
 -0.000000000000000 0.000000000000000 0.000000000000000
 0.000000000000000 0.000000000000000 -0.000000000000000
 0.000000000000000 0.000000000000000 0.000000000000000
 0.000000000000000 0.000000000000000 0.000000000000000
 0.000000000000000 -0.000000000000000 0.000000000000000
 -0.000000000000000 -0.000000000000000 0.000000000000000
 -0.000000000000000 -0.000000000000000 -0.000000000000000
 -0.000000000000000 0.000000000000000 -0.000000000000000
 -0.000000000000000 -0.000000000000000 -0.000000000000000
 0.000000000000000 -0.000000000000000 -0.000000000000000
 0.000000000000000 0.000000000000000 0.000000000000000
 0.000000000000000 0.000000000000000 -0.000000000000000
 0.000000000000000 0.000000000000000 0.000000000000000
 0.000000000000000 0.000000000000000 -0.000000000000000
 -0.000000000000000 0.000000000000000 -0.000000000000000
 0.000000000000000 -0.000000000000000 -0.000000000000000
 -0.000000000000000 -0.000000000000000 0.000000000000000
 0.000000000000000 -0.000000000000000 -0.000000000000000
 -0.000000000000000 -0.000000000000000 -0.000000000000000
 0.000000000000000 -0.000000000000000 0.000000000000000
 0.000000000000000 -0.000000000000000 0.000000000000000
 0.000000000000000 0.000000000000000 -0.000000000000000
 -0.000000000000000 -0.000000000000000 0.000000000000000
 0.000000000000000 -0.000000000000000 0.000000000000000
 243668.330888387 280168.749324160 445568.419464625
 175923.556612122 279199.850132293 476967.866753145
 124209.852971202 277620.742267786 493860.947927204
 86557.3218904753 275925.461798876 502765.322549424
 59844.6366021287 274399.057119540 507468.005811072
 41169.0335856884 273128.625773160 510005.749435127
 28220.8191171296 272098.253968842 511435.358139683
 19281.9505714772 271252.878534194 512298.821264575
 13118.9379380239 270527.618558613 512876.886849450
 8861.08122361354 269860.072267079 513319.610608786
 5901.66258016284 269191.587820833 513713.012707765
 3818.09090076034 268467.524002772 514111.476955821
 2319.12336256435 267633.848364107 514554.899769352
 1201.92936195148 266637.388485573 515075.779305727
 329.957640077134 265423.546995082 515703.627899306
 -389.552284838086 263939.917397291 516464.488859911
 -1009.73990011251 262137.372893281 517380.883061931
 -1557.46414795858 259979.214579508 518467.339658007
 -2027.26508043719 257447.336216737 519727.581787998
 -2394.99882427318 254557.431769688 521147.558673599
 -2608.59764488644 251368.575519264 522692.102924602
 -2613.09364347985 247997.847105537 524299.761179261
 -2343.97440401335 244622.213272682 525884.472634026
 -1770.79164665697 241473.609802463 527339.890455778
 -885.405315691578 238815.677161873 528551.121840776
 247.084616665264 236902.855287188 529411.915341891
 1534.21786072818 235939.931359817 529839.593618183
 2817.35502254433 236026.951629981 529795.564925694
 3966.47138792734 237156.905477932 529283.354441513
 4836.39178435967 239187.582077684 528361.533321967
 5378.46561859868 241917.776137646 527111.811379906
 5551.73285982888 245068.512990251 525652.548936082
 5422.10651361562 248411.275624010 524082.473379722
 5031.61216582599 251696.360763655 522516.626393214
 4494.60677196998 254800.094366045 521015.076961329
 3863.74744956318 257574.305353806 519654.258788620
 3232.56353795895 260017.912967626 518440.194688773
 2624.90237014697 262063.506802600 517412.628653255
 2090.53181391017 263788.491621732 516537.763735301
 1627.03666050263 265160.599225232 515836.417258631
 1248.26591724346 266289.819612882 515255.445194651
 943.200189201445 267147.335206606 514812.015851818
 703.382620851502 267848.244067371 514448.076488691
 523.638693497389 268354.117738831 514184.590682308
 382.002688226846 268773.276035634 513965.738316300
 286.292156223266 269056.217413994 513817.739969802
 204.668847601601 269300.899088028 513689.579280174
 159.824605962864 269450.227215608 513611.282498304
 110.985199881510 269591.400006025 513537.208705539
 94.9517691943864 269664.404941828 513498.879932111
 62.2208897532493 269745.986767369 513456.033903059
 61.8911675259892 269777.495915016 513439.479264409
 36.1714804504393 269825.360335538 513414.329378740
 44.3024944609009 269835.710287007 513408.889182098
 21.1776545691634 269864.502432344 513393.757147913
 33.9139350402412 269865.171020513 513393.405021835
 11.5748803381924 269882.896203252 513384.088381172
 26.8378973758676 269880.146508860 513385.533298401
 4.80595804630544 269891.053746764 513379.800035377
 21.3780027207153 269888.164115456 513381.318722614
 -0.205745954489265 269894.471517841 513378.003272504
 16.8544150921954 269893.044107397 513378.753415421
 -3.88854404586291 269895.926354355 513377.238414602
 13.0250884218528 269896.627219261 513376.869800359
 -6.42213486339376 269896.754383630 513376.803071524
 9.80426216990041 269899.721485099 513375.243117685
 -7.94290440617110 269897.540844393 513376.389584737
 7.09418278831966 269902.614011767 513373.722447192
 -8.69346246029222 269898.498851507 513375.885918035
 4.62682095903500 269905.367647232 513372.274761508
 -9.19733508365963 269899.708085615 513375.250173505
 1.74269064754519 269908.030572234 513370.874738314
 -10.5425507112541 269901.305433939 513374.410361395
 -3.00864888139978 269910.820880320 513369.407700401
 -14.9491356786266 269903.666991865 513373.168680315
 -12.7146275832957 269914.310006952 513367.573081714
 -27.0295397243395 269907.596899291 513371.102035802
 -34.0065711793779 269919.618473235 513364.781034711
 -56.6576154999914 269914.539099229 513367.449662292
 -81.3841461165961 269928.645940184 513360.029099968
 -125.454600260155 269926.840931441 513360.969305143
 -186.930957727096 269944.372841220 513351.731883878
 -281.301080080954 269948.117308505 513349.719812231
 -421.965103621511 269971.306336425 513337.428696228
 -630.595100043976 269983.842900341 513330.621454228
 -945.064213096376 270016.322436822 513313.055036912
 -1409.69849810263 270042.687858385 513298.119502072
 -2108.27370675437 270090.947309041 513270.333609572
 -3142.68776428131 270140.637742569 513238.891115681
 -4691.13159640462 270218.914986826 513185.864251626
 -6987.99034919037 270314.810120413 513109.219777276
 -10412.8926951427 270460.883116837 512974.153705018
 -15492.6781898515 270666.271178233 512737.502596579
 -23037.0816544457 270985.354777382 512285.301726511
 -34194.8034944558 271470.417489943 511404.465997132
 -50656.6075746448 272224.706784553 509634.787985566
 -74775.3192558070 273361.390172535 506045.652084011
 -109737.332730902 275006.951192357 498727.274771485
 -159347.805342207 277204.100588607 483907.184850033
 -226880.160489967 279859.731274018 454537.043140910
 -0.000000000000000 -0.000000000000000 -0.000000000000000
 -0.000000000000000 -0.000000000000000 -0.000000000000000
 0.000000000000000 0.000000000000000 -0.000000000000000
 0.000000000000000 -0.000000000000000 0.000000000000000
 -0.000000000000000 -0.000000000000000 -0.000000000000000
 -0.000000000000000 -0.000000000000000 -0.000000000000000
 0.000000000000000 0.000000000000000 0.000000000000000
 0.000000000000000 0.000000000000000 -0.000000000000000
 0.000000000000000 0.000000000000000 -0.000000000000000
 0.000000000000000 0.000000000000000 -0.000000000000000
 -0.000000000000000 0.000000000000000 0.000000000000000
 -0.000000000000000 -0.000000000000000 0.000000000000000
 0.000000000000000 -0.000000000000000 -0.000000000000000
 -0.000000000000000 -0.000000000000000 -0.000000000000000
 -0.000000000000000 0.000000000000000 0.000000000000000
 -0.000000000000000 0.000000000000000 0.000000000000000
 -0.000000000000000 -0.000000000000000 -0.000000000000000
 0.000000000000000 0.000000000000000 -0.000000000000000
 0.000000000000000 -0.000000000000000 0.000000000000000
 -0.000000000000000 -0.000000000000000 -0.000000000000000
 -0.000000000000000 0.000000000000000 0.000000000000000
 0.000000000000000 -0.000000000000000 -0.000000000000000
 0.000000000000000 0.000000000000000 -0.000000000000000
 0.000000000000000 -0.000000000000000 0.000000000000000
 -0.000000000000000 0.000000000000000 0.000000000000000
 241643.980588831 212043.511665256 482748.108029282
 172111.270419118 209323.463618865 512797.619118224
 120524.176225124 205945.600789273 528640.078371665
 83539.5155422988 202874.584350600 536901.343234984
 57544.9939938319 200371.360364402 541239.218471804
 39481.3718068127 198421.605186084 543571.603264583
 27005.0174989071 196921.118592921 544878.704008513
 18410.8827799799 195748.113787535 545658.973484249
 12487.0168353885 194792.134325972 546168.562639123
 8388.09814756073 193956.572221206 546544.131705452
 5523.42261061761 193160.157695285 546862.546973000
 3486.95533582880 192328.328946529 547172.418006538
 1992.51038381305 191393.615744908 547507.546755714
 846.605625501981 190286.766041986 547896.185356493
 -90.0177727684349 188941.257841930 548362.282603307
 -902.756703671932 187286.488657664 548928.917253060
 -1650.51260256776 185259.047680623 549614.738758539
 -2347.19505755022 182800.335540195 550434.853549222
 -2989.31912482745 179877.612660107 551393.787084031
 -3523.46189136087 176488.515254803 552484.741146265
 -3888.89798505560 172691.048146993 553681.025828368
 -3977.64707175120 168610.738969982 554936.570274269
 -3712.75241929269 164462.638728792 556181.855090433
 -3001.38633088781 160540.161116086 557331.004295395
 -1856.90482357134 157190.468759088 558289.985971246
 -310.951730555816 154767.107588245 558969.628618399
 1447.08953298978 153542.161513155 559305.561003779
 3257.61806058778 153678.241773994 559260.570691181
 4842.49637978182 155128.759747615 558848.475105711
 6085.14897221235 157742.640684887 558104.139271287
 6807.82281461911 161169.048806900 557115.958535747
 7076.34013478089 165121.857816739 555953.862727336
 6865.92084530572 169185.040379425 554733.522732093
 6372.49284132654 173188.409894432 553502.634152020
 5628.74934478834 176819.871728166 552361.340195753
 4833.10096805716 180110.431405488 551304.701262343
 3992.83529319920 182854.924068514 550407.243784291
 3241.13625837829 185235.055291201 549615.746978760
 2550.70925246734 187089.693641598 548990.838188946
 1985.25730089291 188676.598265197 548449.815407502
 1510.45721013820 189830.791286236 548052.907298791
 1136.72496033267 190836.099717672 547704.565346056
 849.656438017312 191505.850001396 547471.266368546
 619.267730323867 192124.868094750 547254.649653206
 466.020225633629 192486.046125389 547127.868849836
 325.441166933185 192863.941682461 546994.875740853
 257.859424628500 193040.147060332 546932.751927916
 166.363346884632 193273.293127504 546850.442522347
 150.519806163013 193344.487608232 546825.279641768
 82.2386541377992 193492.432671096 546772.961781967
 96.9508629240890 193507.703465470 546767.555090871
 37.4582366003453 193605.366048894 546732.988609571
 70.3127311263760 193593.772904368 546737.090518626
 12.5963995198452 193660.767951865 546713.368043644
 56.4133520754751 193639.030927778 546721.064637978
 -2.21095629046124 193685.969255699 546704.440542230
 48.2149175396316 193663.438380350 546712.420116849
 -11.6694904618073 193695.895012277 546700.923832415
 42.4256238133932 193677.590629774 546707.407200517
 -17.9123151300633 193698.489727913 546700.004349986
 37.5952889654569 193686.894645000 546704.111407049
 -21.8831445985138 193697.884052337 546700.218798909
 33.1365129863308 193693.971135758 546701.604577517
 -24.0218733198484 193696.175312777 546700.824118778
 28.8470825179695 193699.987962972 546699.473048026
 -24.5961440908940 193694.392266297 546701.455823578
 24.6625846584974 193705.380449799 546697.562621743
 -23.8872812521593 193693.010320665 546701.945471494
 20.4830768999767 193710.248967151 546695.837761299
 -22.3479678471172 193692.248009028 546702.215618134
 15.9833967596162 193714.611981452 546694.291948806
 -20.8129289314360 193692.280800606 546702.204060932
 10.3194238759706 193718.613787779 546692.874076159
 -20.8811976996245 193693.443518283 546701.792115231
 1.55719632824846 193722.737085155 546691.413078540
 -25.7347696471518 193696.459446867 546700.723372002
 -14.5745605298998 193728.055020309 546689.528421416
 -41.9952123050798 193702.735660273 546698.498657284
 -47.5029765743722 193736.575952639 546686.506950386
 -83.9465685736677 193714.798365451 546694.219694343
 -118.166635831705 193751.784574897 546681.106323137
 -183.038695282290 193737.010659659 546686.324319070
 -273.228961809099 193779.578509747 546671.199441236
 -409.086507824410 193776.856426489 546672.079551990
 -616.678108236446 193830.025202972 546653.035332217
 -917.321814702517 193847.455815934 546646.432709825
 -1379.83432832830 193921.029415779 546619.365196249
 -2052.48687612891 193973.148254305 546598.760567508
 -3075.97389723644 194087.048018586 546553.525444685
 -4578.30456425244 194203.503558208 546501.636166840
 -6840.34235845923 194401.925547993 546407.449674373
 -10180.3475219699 194650.818399405 546266.802415059
 -15171.6302090559 195040.090912371 546012.073651942
 -22554.5144352390 195588.316558602 545560.724671748
 -33517.8881815855 196428.956616406 544694.608174559
 -49687.9076837164 197673.119087302 543006.859828043
 -73477.2197734237 199540.044649310 539615.482316547
 -108131.282570745 202230.359857381 532738.685737727
 -157883.931698365 205871.459983567 518738.475607604
 -227291.698919416 210027.165280629 490537.535206541
 -0.000000000000000 0.000000000000000 -0.000000000000000
 -0.000000000000000 -0.000000000000000 0.000000000000000
 -0.000000000000000 -0.000000000000000 -0.000000000000000
 0.000000000000000 0.000000000000000 0.000000000000000
 0.000000000000000 -0.000000000000000 -0.000000000000000
 -0.000000000000000 0.000000000000000 0.000000000000000
 0.000000000000000 0.000000000000000 -0.000000000000000
 -0.000000000000000 0.000000000000000 0.000000000000000
 0.000000000000000 0.000000000000000 0.000000000000000
 0.000000000000000 -0.000000000000000 -0.000000000000000
 -0.000000000000000 0.000000000000000 0.000000000000000
 -0.000000000000000 0.000000000000000 0.000000000000000
 -0.000000000000000 0.000000000000000 -0.000000000000000
 -0.000000000000000 -0.000000000000000 0.000000000000000
 -0.000000000000000 0.000000000000000 0.000000000000000
 0.000000000000000 0.000000000000000 -0.000000000000000
 -0.000000000000000 0.000000000000000 -0.000000000000000
 -0.000000000000000 0.000000000000000 0.000000000000000
 0.000000000000000 -0.000000000000000 0.000000000000000
 0.000000000000000 0.000000000000000 -0.000000000000000
 -0.000000000000000 -0.000000000000000 0.000000000000000
 -0.000000000000000 0.000000000000000 -0.000000000000000
 -0.000000000000000 -0.000000000000000 -0.000000000000000
 -0.000000000000000 0.000000000000000 -0.000000000000000
 0.000000000000000 -0.000000000000000 0.000000000000000
 238604.679018970 160774.570587106 503606.338922363
 167551.478959181 157697.309150347 532407.795383700
 116028.506308857 153411.932306108 547176.538924908
 79754.1308754732 149360.676421503 554734.771712761
 54603.2546510487 146002.670251496 558660.634787297
 37293.3757749398 143376.911351050 560760.434958407
 25414.9688205049 141367.150606741 561933.633171377
 17258.8168929140 139822.323166801 562629.408388591
 11639.2014894359 138596.170410166 563076.931277001
 7732.55171389659 137564.480760512 563397.036979325
 4975.21115909866 136617.884112598 563658.408093518
 2970.36155147869 135663.318302643 563903.042215033
 1447.74069259874 134609.656940406 564161.452339021
 208.772343999577 133371.436360333 564457.275953894
 -876.369566569863 131854.333973611 564812.948318962
 -1907.25594691308 129965.729968615 565247.973378479
 -2929.56988065568 127602.835495675 565781.701713459
 -3970.02545227619 124675.035516029 566427.730974557
 -4989.08624443430 121100.303873652 567194.697983113
 -5926.68089725973 116846.021194107 568077.355458434
 -6637.07565720902 111939.594823282 569056.654769558
 -6974.69737924056 106523.944561959 570091.223254164
 -6725.94812836379 100868.970502262 571121.889277227
 -5773.81973341682 95395.5184331730 572071.986788859
 -4015.09551147644 90634.6766717884 572860.571511632
 -1590.10966787474 87139.3361354157 573414.516426925
 1317.72269471620 85385.1826473243 573679.034122028
 4261.80867920842 85595.3349502731 573633.398279365
 6935.49899166514 87765.6384769136 573279.243960983
 8908.68866572561 91526.3172779029 572663.573585575
 10126.1467080769 96457.8066489843 571833.325969476
 10447.6202312534 101900.566384786 570882.756616421
 10139.2181787925 107490.635259839 569862.228601053
 9251.22504301947 112682.680313109 568873.473096309
 8141.35921160297 117444.027848210 567926.596131029
 6847.91987293001 121426.798878038 567105.491516038
 5640.42926137589 124883.431429068 566367.649245831
 4483.25578001763 127554.361647683 565782.453989397
 3523.66482152457 129840.531433871 565268.980382964
 2692.84308626749 131473.763856835 564895.917858706
 2042.58825923858 132909.607458321 564562.542220504
 1524.19594520325 133835.638465002 564345.371827736
 1119.71644253232 134717.541582901 564136.446460383
 832.651563853665 135201.412011813 564021.174142767
 587.204503662654 135744.176049913 563891.101064204
 451.459203114737 135967.420992879 563837.438108834
 295.285777562437 136309.571237496 563754.923344674
 252.491530166227 136386.913020131 563736.238151200
 139.946268291295 136611.796997380 563681.822783198
 152.964148928643 136612.489515114 563681.651564473
 57.8478132108825 136767.855255793 563643.992625097
 104.608275800192 136732.559309792 563652.549255038
 13.6176453376408 136844.660547418 563625.353132931
 81.2261291231738 136796.803871140 563636.964590645
 -11.2481105565027 136879.529165677 563616.886163697
 69.3694733809727 136832.371345856 563628.332626870
 -25.9258997910232 136892.824411334 563613.656641263
 62.4478694900857 136853.655894776 563623.165748621
 -34.7819931105886 136895.445967319 563613.019423454
 57.3624377394097 136868.015120751 563619.679523752
 -39.8554884760296 136893.138040494 563613.579652732
 52.7228809753841 136879.030085840 563617.005015868
 -42.1299908282013 136888.900247534 563614.608765675
 47.9575015554585 136888.316865827 563614.749989493
 -42.1513632073718 136884.294484504 563615.727377033
 42.8750635189233 136896.506408457 563612.761295278
 -40.3326536311064 136880.133471771 563616.738071207
 37.4198814667087 136903.771082251 563610.997109897
 -37.1402561834868 136876.851117473 563617.535434062
 31.4766083028396 136910.131127217 563609.452550213
 -33.2735348837001 136874.738428370 563618.048746700
 24.6303464791732 136915.680808109 563608.104752050
 -29.9377343824960 136874.152794204 563618.191154793
 15.7594391556540 136920.815870341 563606.857599373
 -29.3873460751500 136875.766755744 563617.799232255
 2.20007621819135 136926.521783270 563605.471608904
 -36.1354380974658 136880.920186900 563616.547293474
 -22.1070269340350 136934.803448875 563603.459105511
 -59.7108412079338 136892.185172135 563613.809335270
 -70.7951413276170 136949.410528157 563599.905912020
 -120.904600712898 136914.358180179 563608.413622603
 -174.452774177460 136977.159070952 563593.140003567
 -265.778926917595 136956.296793259 563598.174349632
 -401.553192224515 137030.436474380 563580.072602532
 -596.869943952299 137034.434155830 563578.927570807
 -904.945920393734 137132.098790002 563554.760918875
 -1342.40375982322 137179.757312577 563542.289571783
 -2024.81355823512 137325.453330629 563504.764840185
 -3009.35452309136 137452.365138039 563469.423396970
 -4515.95038539382 137695.672706098 563399.953771858
 -6720.62898296007 137973.386507449 563310.019227192
 -10047.1458520489 138417.557417941 563151.520160142
 -14953.2546732372 138996.405458208 562899.990623889
 -22288.7479534756 139860.830537401 562443.028044668
 -33132.6544482151 141057.608046265 561609.275583552
 -49228.4340216183 142789.240838377 559989.101665898
 -72939.1992144689 145197.380007111 556774.275678234
 -107727.305036890 148481.936551270 550225.355892904
 -158092.365161469 152588.892808322 536771.304997932
 -229331.414409476 156778.812075080 509143.895622128
 0.000000000000000 -0.000000000000000 0.000000000000000
 0.000000000000000 -0.000000000000000 0.000000000000000
 0.000000000000000 0.000000000000000 0.000000000000000
 -0.000000000000000 -0.000000000000000 -0.000000000000000
 0.000000000000000 0.000000000000000 -0.000000000000000
 -0.000000000000000 0.000000000000000 0.000000000000000
 0.000000000000000 0.000000000000000 -0.000000000000000
 -0.000000000000000 0.000000000000000 0.000000000000000
 -0.000000000000000 0.000000000000000 0.000000000000000
 -0.000000000000000 0.000000000000000 0.000000000000000
 -0.000000000000000 -0.000000000000000 -0.000000000000000
 -0.000000000000000 0.000000000000000 0.000000000000000
 0.000000000000000 0.000000000000000 -0.000000000000000
 -0.000000000000000 0.000000000000000 0.000000000000000
 -0.000000000000000 0.000000000000000 0.000000000000000
 0.000000000000000 0.000000000000000 0.000000000000000
 0.000000000000000 -0.000000000000000 0.000000000000000
 0.000000000000000 0.000000000000000 -0.000000000000000
 0.000000000000000 0.000000000000000 -0.000000000000000
 -0.000000000000000 0.000000000000000 0.000000000000000
 0.000000000000000 0.000000000000000 -0.000000000000000
 0.000000000000000 -0.000000000000000 0.000000000000000
 0.000000000000000 -0.000000000000000 0.000000000000000
 -0.000000000000000 0.000000000000000 0.000000000000000
 0.000000000000000 0.000000000000000 -0.000000000000000
 232418.179313208 125004.980356952 516483.828217972
 160736.055620316 121613.403923943 543851.174871999
 109900.987772193 116502.905902282 557448.514037862
 74822.1243944765 111537.752454525 564234.861984343
 50877.6119094696 107376.958190427 567698.562140297
 34580.8634861743 104113.561236908 569530.095997674
 23471.7245201483 101625.412007360 570544.786833063
 15866.1851078767 99729.2565183075 571141.260604089
 10613.1448653813 98249.4644174157 571519.381909097
 6933.44600917752 97028.9454123913 571784.322169292
 4284.85007887101 95937.0464849753 571994.513235522
 2297.30800432336 94852.9580548084 572186.716661778
 698.525495134706 93667.9313314430 572386.085349932
 -698.330276510157 92264.2599776460 572614.022414403
 -2043.76789901485 90522.6356012902 572888.711231571
 -3430.53908880103 88300.7964761667 573228.750799569
 -4933.39790369204 85451.5220188773 573649.456523564
 -6556.06666210550 81807.0564310979 574164.282682232
 -8271.54994135307 77219.3599085063 574777.132388623
 -9937.07841803741 71565.5959184465 575482.076135609
 -11360.1753150598 64827.1761784689 576253.749354863
 -12202.6356023134 57128.5042303997 577050.630091289
 -12139.5583324058 48836.7217705231 577812.777403030
 -10795.8588865158 40578.7450310639 578478.015902598
 -8055.75007493534 33226.4856765314 578991.455498540
 -3958.25104336528 27752.9181556013 579322.110558993
 974.905689862857 24976.8519314575 579461.134526286
 6152.32446836233 25373.5578256513 579412.056715171
 10692.8493415729 28818.9638124992 579184.884382986
 14129.7245518718 34804.0486830738 578782.367629970
 15998.9658178825 42339.5426052954 578231.265346948
 16504.9572256383 50613.3819742416 577551.618430863
 15726.2437619562 58643.5331934801 576813.333125826
 14247.0567544392 66106.2920085190 576044.251365049
 12245.0873486671 72433.4709655460 575328.992942044
 10225.7559790673 77860.8066192320 574659.141324019
 8214.10857500938 82063.3931087160 574106.373359330
 6498.35088996211 85572.9823391176 573615.756521123
 4986.80911225761 88081.4660798726 573251.068091546
 3798.11026102908 90219.6928915131 572927.553337249
 2829.47309762652 91603.3952366921 572713.551492454
 2090.47765649979 92879.2846240712 572511.194991756
 1536.92112029193 93583.6789992046 572398.229293596
 1098.39324430729 94351.9959009735 572273.094249401
 817.961801113790 94668.7681924118 572221.246780843
 552.969342061901 95147.7078138598 572142.122136341
 439.435108306736 95252.8846942399 572124.719667147
 263.141229657942 95567.9444517651 572072.284549739
 248.663712621269 95563.6320703601 572073.011417143
 111.412781762536 95783.9312574891 572036.210479768
 155.933265787265 95728.2916411767 572045.513804871
 31.5675907745555 95890.5675231112 572018.354656197
 112.082484806373 95816.4935952429 572030.757033771
 -11.4946755661595 95939.5765885136 572010.137595383
 91.4965955195429 95865.5891613666 572022.534908475
 -35.5216575410522 95958.7689835511 572006.917260074
 81.3410744445289 95895.1653105342 572017.578972618
 -49.1678720379266 95962.9211152053 572006.219680833
 75.3846527547216 95915.1848569066 572014.223276851
 -56.5723095597519 95959.8173160422 572006.739698271
 70.6877074141071 95930.4971624346 572011.656102755
 -59.7444020919236 95953.5576027735 572007.789469670
 65.9211506861809 95943.3072574524 572009.508178758
 -59.7431780918782 95946.3324705376 572009.001429353
 60.5439940420412 95954.5037629848 572007.630667655
 -57.2417637030769 95939.3492052263 572010.172984238
 54.3908183829469 95964.3618157118 572005.977506304
 -52.8132755031077 95933.3092275668 572011.186421565
 47.4213629567496 95972.9261420577 572004.541239793
 -47.1232725157643 95928.6770342195 572011.963775113
 39.4932656980027 95980.2592842136 572003.311413506
 -41.1465745108506 95925.8880160379 572012.431958689
 30.0464684781411 95986.6697611024 572002.236294041
 -36.5431509224567 95925.5905633230 572012.482153734
 17.5206364711348 95993.0037632822 572001.173881251
 -36.4574083485849 95929.0069266528 572011.909229977
 -1.88414033306909 96001.0984749023 571999.815636389
 -47.3278852392105 95938.5391070274 572010.309762054
 -36.9753990103098 96014.5710351109 571997.553125679
 -83.0088460217711 95958.8610754411 572006.896890795
 -107.796223208839 96040.2821270686 571993.227747433
 -174.076179329977 95998.9665570562 572000.146955804
 -259.579457608960 96091.1263300533 571984.639705584
 -388.663549670577 96076.0716326580 571987.095484051
 -593.863191467042 96191.3966099875 571967.536268214
 -878.861674940774 96223.1023428134 571961.836294766
 -1337.62613199815 96387.1387457475 571933.326744245
 -1983.67460419526 96503.1477645891 571911.887887103
 -2996.45256614273 96766.2393782682 571863.022225259
 -4456.77491001030 97037.5125962374 571807.536070080
 -6692.79602777965 97497.4355903385 571707.492109941
 -9968.48711767198 98059.7807023190 571563.564858011
 -14909.6265604057 98904.1731218573 571310.482640491
 -22205.2073508945 100014.039163502 570880.128167644
 -33109.4029161031 101587.794095610 570073.405386821
 -49236.9478044448 103689.767249576 568528.060115445
 -73146.2414660620 106521.116043044 565422.743791168
 -108280.280631893 110116.650535726 559061.449306846
 -159415.542932849 114328.763286736 545816.469664256
 -231990.061666117 118205.169415791 518274.202726255
 -0.000000000000000 0.000000000000000 -0.000000000000000
 0.000000000000000 0.000000000000000 -0.000000000000000
 -0.000000000000000 0.000000000000000 0.000000000000000
 0.000000000000000 0.000000000000000 -0.000000000000000
 0.000000000000000 0.000000000000000 0.000000000000000
 -0.000000000000000 0.000000000000000 0.000000000000000
 0.000000000000000 0.000000000000000 0.000000000000000
 0.000000000000000 0.000000000000000 0.000000000000000
 -0.000000000000000 -0.000000000000000 0.000000000000000
 -0.000000000000000 -0.000000000000000 0.000000000000000
 -0.000000000000000 -0.000000000000000 -0.000000000000000
 0.000000000000000 0.000000000000000 0.000000000000000
 -0.000000000000000 -0.000000000000000 0.000000000000000
 0.000000000000000 0.000000000000000 -0.000000000000000
 0.000000000000000 0.000000000000000 0.000000000000000
 0.000000000000000 0.000000000000000 -0.000000000000000
 -0.000000000000000 -0.000000000000000 0.000000000000000
 0.000000000000000 -0.000000000000000 -0.000000000000000
 0.000000000000000 -0.000000000000000 -0.000000000000000
 0.000000000000000 0.000000000000000 -0.000000000000000
 0.000000000000000 -0.000000000000000 0.000000000000000
 0.000000000000000 -0.000000000000000 0.000000000000000
 -0.000000000000000 0.000000000000000 -0.000000000000000
 0.000000000000000 0.000000000000000 0.000000000000000
 -0.000000000000000 0.000000000000000 -0.000000000000000
 220352.648175728 102048.732156852 526716.970209925
 149476.999226091 97710.7184915805 551823.560745844
 100820.653257009 91334.8815291115 563820.126718524
 68057.6359627819 85279.1168524854 569645.179402071
 46053.2656643058 80299.3332152639 572565.379504242
 31213.0752209435 76454.4464867843 574090.987168107
 21136.6559209820 73558.5265596738 574928.156335074
 14226.8129372056 71378.8404713716 575415.205679005
 9423.22118492531 69695.5967988530 575720.180894636
 6001.79180246865 68325.9397122571 575930.155884892
 3470.97651462370 67109.4480467522 576093.980444940
 1472.55461009437 65908.7304017713 576241.156842990
 -246.173450192253 64583.5260670960 576393.014842628
 -1892.99186471955 62993.4512265491 576565.904025176
 -3617.77044097805 60968.5967345746 576775.295890222
 -5558.01074510128 58319.4357541560 577033.752851490
 -7789.89142528024 54807.2736845870 577352.128551411