# OOMMF OVF 2.0
#
# Segment count: 1
#
# Begin: Segment
# Begin: Header
#
# Title: Oxs_TimeDriver::Magnetization
# Desc: Oxs vector field output
# Desc:  MIF source file: C:/Users/Victor H. González/Documents/GitHub/Intro-to-magnetism-in-python/domain_wall_conversion_thin_film/drive-46/domain_wall_conversion_thin_film.mif
# Desc:  Iteration: 1153, State id: 8110
# Desc:  Stage: 95, Stage iteration: 11
# Desc:  Stage simulation time: 2e-12 s
# Desc:  Total simulation time: 1.92e-10 s
# meshunit: m
# meshtype: rectangular
# xbase: 1.0000000000000001e-09
# ybase: 1.0000000000000001e-09
# zbase: 1.0000000000000001e-09
# xnodes: 125
# ynodes: 25
# znodes: 1
# xstepsize: 2.0000000000000001e-09
# ystepsize: 2.0000000000000001e-09
# zstepsize: 2.0000000000000001e-09
# xmin: 0
# ymin: 0
# zmin: 0
# xmax: 2.5000000000000004e-07
# ymax: 5.0000000000000004e-08
# zmax: 2.0000000000000001e-09
# valuedim: 3
# valuelabels: Magnetization_x Magnetization_y Magnetization_z
# valueunits: A/m A/m A/m
#
# End: Header
#
# Begin: Data Text
 0.000000000000000 -0.000000000000000 -0.000000000000000
 -0.000000000000000 0.000000000000000 0.000000000000000
 0.000000000000000 0.000000000000000 -0.000000000000000
 0.000000000000000 0.000000000000000 0.000000000000000
 0.000000000000000 0.000000000000000 0.000000000000000
 0.000000000000000 -0.000000000000000 0.000000000000000
 -0.000000000000000 -0.000000000000000 0.000000000000000
 -0.000000000000000 -0.000000000000000 -0.000000000000000
 -0.000000000000000 0.000000000000000 -0.000000000000000
 -0.000000000000000 -0.000000000000000 -0.000000000000000
 0.000000000000000 -0.000000000000000 -0.000000000000000
 0.000000000000000 0.000000000000000 0.000000000000000
 0.000000000000000 0.000000000000000 -0.000000000000000
 0.000000000000000 0.000000000000000 0.000000000000000
 0.000000000000000 0.000000000000000 -0.000000000000000
 -0.000000000000000 0.000000000000000 -0.000000000000000
 0.000000000000000 -0.000000000000000 -0.000000000000000
 -0.000000000000000 -0.000000000000000 0.000000000000000
 0.000000000000000 -0.000000000000000 -0.000000000000000
 -0.000000000000000 -0.000000000000000 -0.000000000000000
 0.000000000000000 -0.000000000000000 0.000000000000000
 0.000000000000000 -0.000000000000000 0.000000000000000
 0.000000000000000 0.000000000000000 -0.000000000000000
 -0.000000000000000 -0.000000000000000 0.000000000000000
 0.000000000000000 -0.000000000000000 0.000000000000000
 243791.821182727 280056.922786528 445571.170436048
 176043.730053846 279097.169354268 476983.621487324
 124326.360398107 277534.350298949 493880.188420533
 86672.5864598687 275863.420162665 502779.510493928
 59962.1323728168 274372.176741142 507468.670275941
 41293.8640333344 273150.427964612 509983.980626790
 28358.6154823795 272187.180644515 511380.413802398
 19440.6910015933 271432.039787907 512197.918103887
 13307.5164639432 270827.932253067 512713.507835604
 9091.88886612693 270320.020008156 513073.507735136
 6188.29406074593 269861.320884903 513358.132795101
 4178.40353176496 269408.276038780 513616.317639675
 2771.22983164167 268922.496073984 513880.347348055
 1767.13165544663 268364.238263404 514176.538619777
 1025.43257734770 267695.673792485 514526.942657833
 451.118015836769 266874.379376087 514954.233039368
 -23.8872294123561 265859.738722165 515478.999335553
 -440.563398085743 264607.258902393 516122.857893404
 -826.009166542752 263079.759441708 516902.658032390
 -1184.06454648563 261243.588272018 517832.391395044
 -1509.11880898543 259086.266277728 518914.279227973
 -1770.14652187867 256614.769021775 520140.103146443
 -1932.91766461578 253878.477731110 521480.567590237
 -1940.23900726608 250964.983763757 522888.910187481
 -1752.39500817996 248019.193147303 524293.247088207
 -1321.88956565560 245224.420660513 525607.492450109
 -656.038699864115 242800.956398018 526732.631593518
 231.244310565730 240964.000450958 527575.868489774
 1243.62546026496 239897.440529777 528060.291465830
 2301.60146906218 239712.639443651 528140.656569475
 3254.53441489128 240422.724704260 527812.771209188
 4034.98127613340 241953.139707188 527107.576412951
 4528.52394795629 244130.885670224 526098.472847740
 4758.83667317263 246766.286553529 524865.462089191
 4689.41627004572 249616.990893195 523516.348581850
 4428.85738160751 252520.352594006 522124.369042561
 3981.38391871111 255279.637873234 520784.461240351
 3478.75362898207 257838.828703257 519525.780578906
 2915.70485327142 260076.648927196 518412.611100471
 2400.61116188689 262038.406235488 517426.430252277
 1902.19397067054 263650.594670177 516608.890349517
 1493.81219084500 265020.449623760 515908.838658884
 1128.66259048399 266087.227896010 515360.372236141
 851.317296308741 266985.473968331 514896.137049762
 616.061114905074 267646.493982189 514553.179688693
 446.539509867830 268212.139842624 514258.737060934
 310.015354103227 268599.212999720 514056.773777383
 213.319169819893 268947.793051700 513874.536348661
 142.518339415413 269161.730725783 513762.535030751
 88.6413348826243 269375.742531864 513650.368906829
 58.3119764132252 269485.511520461 513592.791694226
 26.5465244447561 269618.769781431 513522.850783517
 20.1383584570510 269668.427683853 513496.775749337
 -2.04229540270334 269753.958872186 513451.849415904
 5.54267645831609 269770.427059217 513443.197105159
 -13.8669807341535 269827.617543858 513413.144181479
 2.01942987178739 269826.880069137 513413.531948738
 -17.8971041979776 269866.730338386 513392.586171794
 3.03305081028923 269858.109611230 513397.117899831
 -18.6374323478198 269886.706992536 513382.084846532
 5.37382681321580 269875.577039353 513387.936056934
 -18.1917933450489 269896.244202726 513377.071005631
 7.58805981143570 269885.661250940 513382.634877305
 -17.4454421818422 269900.226011745 513374.977666876
 9.10218862135747 269891.874471260 513379.368509819
 -16.7167370416838 269901.396245887 513374.362454020
 9.73748373701536 269896.129981736 513377.131284656
 -16.1287163437242 269901.307811397 513374.408966362
 9.41208343466529 269899.467059491 513375.376885584
 -15.8652594257718 269900.870511767 513374.638880110
 7.89201641307270 269902.484051899 513373.790761011
 -16.4379691656134 269900.691907190 513374.732761375
 4.46114951625541 269905.627883060 513372.137943956
 -19.1180417403323 269901.324295327 513374.400197487
 -2.69289947566858 269909.425252744 513370.141469565
 -26.8191023118370 269903.483287997 513373.264778895
 -17.7916446016257 269914.706278312 513367.364582275
 -46.0424954432142 269908.279342211 513370.741884085
 -50.3822110219840 269922.855553237 513363.077666888
 -91.2283526266467 269917.493840836 513365.891149841
 -121.851542879322 269936.120676932 513356.090746073
 -194.475813544998 269933.931239437 513357.219628574
 -279.941326396292 269958.017305000 513344.514459449
 -427.177159080539 269961.908751701 513342.366596420
 -630.989419703996 269993.948376484 513325.305914708
 -948.016143041588 270008.128644725 513317.359662779
 -1411.35169799488 270052.550554990 513292.926139771
 -2109.15222619552 270083.977803322 513273.997403747
 -3145.13008201962 270149.813304506 513234.046540472
 -4690.23204362766 270213.098620464 513188.935049563
 -6990.78933973216 270322.889769140 513104.925070174
 -10410.6122047909 270456.118312726 512976.712162194
 -15495.4293637424 270672.906617089 512733.916658817
 -23033.9208375618 270981.582771650 512287.439129070
 -34197.0939907776 271475.340229032 511401.699655092
 -50653.1874042762 272221.979575183 509636.584677706
 -74776.6764000893 273364.439991121 506043.804047533
 -109734.412758611 275005.437225180 498728.752081842
 -159347.751498388 277205.319528896 483906.504313892
 -226878.530739162 279859.562874162 454537.960304222
 -0.000000000000000 -0.000000000000000 -0.000000000000000
 -0.000000000000000 -0.000000000000000 -0.000000000000000
 0.000000000000000 0.000000000000000 -0.000000000000000
 0.000000000000000 -0.000000000000000 0.000000000000000
 -0.000000000000000 -0.000000000000000 -0.000000000000000
 -0.000000000000000 -0.000000000000000 -0.000000000000000
 0.000000000000000 0.000000000000000 0.000000000000000
 0.000000000000000 0.000000000000000 -0.000000000000000
 0.000000000000000 0.000000000000000 -0.000000000000000
 0.000000000000000 0.000000000000000 -0.000000000000000
 -0.000000000000000 0.000000000000000 0.000000000000000
 -0.000000000000000 -0.000000000000000 0.000000000000000
 0.000000000000000 -0.000000000000000 -0.000000000000000
 -0.000000000000000 -0.000000000000000 -0.000000000000000
 -0.000000000000000 0.000000000000000 0.000000000000000
 -0.000000000000000 0.000000000000000 0.000000000000000
 -0.000000000000000 -0.000000000000000 -0.000000000000000
 0.000000000000000 0.000000000000000 -0.000000000000000
 0.000000000000000 -0.000000000000000 0.000000000000000
 -0.000000000000000 -0.000000000000000 -0.000000000000000
 -0.000000000000000 0.000000000000000 0.000000000000000
 0.000000000000000 -0.000000000000000 -0.000000000000000
 0.000000000000000 0.000000000000000 -0.000000000000000
 0.000000000000000 -0.000000000000000 0.000000000000000
 -0.000000000000000 0.000000000000000 0.000000000000000
 241763.860656730 211936.571787321 482735.046603611
 172229.299069299 209224.745588577 512798.278444354
 120640.262616778 205861.772344775 528646.250079221
 83655.8577932574 202814.899715682 536905.777497498
 57666.6380432741 200346.287768973 541235.553002552
 39613.1629659202 198446.756141234 543552.833031764
 27155.3486039972 197014.512203271 544837.470282196
 18587.6586200085 195936.113401178 545585.500551716
 12703.6432719601 195105.778689735 546051.602478640
 8657.58821184643 194439.780913002 546368.207132203
 5866.53808662193 193865.042380209 546609.484983381
 3923.47086041189 193325.777222536 546817.840087272
 2551.42073157130 192766.723659430 547023.290639310
 1552.55153512329 192143.221626793 547246.354000287
 795.042694383708 191402.491797288 547507.492223534
 178.968798638041 190499.453549459 547822.896717111
 -356.154065074009 189375.912611226 548212.218832221
 -860.555897412572 187984.106789122 548690.472888170
 -1350.17075027519 186264.086425040 549275.766029405
 -1839.33747330384 184178.193151551 549977.281353593
 -2300.07257187990 181687.690569953 550803.315859229
 -2708.87299934612 178801.062138056 551745.269291343
 -2988.29758685963 175549.039059258 552787.124454706
 -3085.73472749746 172042.826908234 553887.844198277
 -2894.80128658568 168437.889591597 554995.763475218
 -2388.13016859079 164981.313979446 556035.487061675
 -1499.80340607618 161945.307741356 556930.397707201
 -320.189106500260 159633.305810800 557599.412799953
 1113.70256229862 158290.423800050 557981.094123989
 2566.46704712259 158070.790863034 558038.563472840
 3957.47646118888 159004.251433780 557765.171381328
 5017.24200173435 160953.979697091 557197.131814553
 5772.71858366718 163731.111752503 556380.084802145
 6042.60427320518 166996.984300018 555405.702318851
 6021.02694552252 170542.529951842 554327.513941123
 5607.56934318416 174015.287025117 553251.511563798
 5085.17176905829 177360.389301540 552193.293453376
 4356.62070384872 180297.438627327 551247.542833950
 3695.79890345691 182956.859211084 550375.443436642
 2969.94750596339 185105.537601597 549660.913073720
 2399.57369876235 187007.460683887 549019.536714886
 1830.46641573575 188426.297639903 548536.397835567
 1425.09185535424 189701.702189371 548097.831869146
 1039.62570882472 190564.373578657 547799.359894624
 783.988298008598 191391.462900240 547511.363618376
 550.540958703868 191874.678953949 547342.492851571
 399.521623256136 192407.350035444 547155.601300774
 274.092769644827 192649.806417447 547070.358327404
 184.273654254349 192999.056801894 546947.282758402
 130.127554189790 193096.941733898 546912.748214772
 69.9974482006609 193335.067837226 546828.626394716
 61.7956608638843 193350.569537545 546823.146401835
 11.7841277358859 193521.515456940 546762.675130978
 33.6119643895253 193493.213670136 546772.690552334
 -16.9883146434233 193622.285136368 546726.998062074
 25.1872685530867 193573.579284109 546744.244385563
 -30.9666080755473 193674.668717808 546708.443082889
 25.4903191898147 193619.612003735 546727.944409069
 -37.7311252257506 193700.009279216 546699.464954553
 28.8440894326797 193647.008717876 546718.241128497
 -40.9797710616995 193710.399861016 546695.783143005
 32.4783495263773 193664.434695796 546712.068349615
 -42.3963334656453 193712.687762515 546694.972358785
 35.1443119667781 193676.592335164 546707.761373767
 -42.6858461204548 193710.782819111 546695.647318986
 36.3573759492654 193685.978603038 546704.436026199
 -42.1412176142529 193706.958129592 546697.002549216
 35.9700940702129 193693.883009324 546701.635621225
 -40.9781913498500 193702.583171054 546698.552763449
 33.8854276884994 193700.969159131 546699.125112333
 -39.5950978065146 193698.557968676 546699.979031538
 29.7717748751116 193707.645578917 546696.759783624
 -38.8963007305861 193695.608457388 546701.024099462
 22.6214591985520 193714.348205397 546694.385180264
 -40.8843814390017 193694.540931604 546701.402176511
 9.86984946376948 193721.813687022 546691.740201365
 -49.9306454105274 193696.526345196 546700.697995471
 -14.5240997929461 193731.410928488 546688.339192184
 -75.6121891998066 193703.487290183 546698.228728079
 -64.3511032241014 193745.615178890 546683.301791713
 -139.070907400110 193718.693099284 546692.828380974
 -170.681599327325 193768.762726902 546675.074847096
 -287.211305125382 193747.752861008 546682.472529508
 -403.066730452098 193808.359878143 546660.916088351
 -624.272338249184 193800.421233780 546663.522666052
 -916.574424548321 193877.605317910 546635.741648419
 -1381.80700131928 193894.304340114 546628.840580035
 -2055.85897066725 194000.962898890 546588.876431085
 -3073.29085436074 194063.606795566 546561.864202782
 -4584.60255125040 194228.151085455 546492.824056613
 -6834.13977979985 194381.999790545 546414.616102918
 -10188.3461292937 194671.611796819 546259.243549780
 -15163.2140941346 195023.851515324 546018.108013337
 -22562.9089885362 195604.683257041 545554.509674228
 -33508.7863580242 196416.645072471 544699.607834710
 -49695.1999909573 197684.566249856 543002.025193705
 -73469.2783236964 199532.049969972 539619.519826123
 -108135.704888319 202236.539912672 532735.442084021
 -157879.242331609 205868.149995721 518741.216463601
 -227291.796397359 210028.244796050 490537.027836178
 -0.000000000000000 0.000000000000000 -0.000000000000000
 -0.000000000000000 -0.000000000000000 0.000000000000000
 -0.000000000000000 -0.000000000000000 -0.000000000000000
 0.000000000000000 0.000000000000000 0.000000000000000
 0.000000000000000 -0.000000000000000 -0.000000000000000
 -0.000000000000000 0.000000000000000 0.000000000000000
 0.000000000000000 0.000000000000000 -0.000000000000000
 -0.000000000000000 0.000000000000000 0.000000000000000
 0.000000000000000 0.000000000000000 0.000000000000000
 0.000000000000000 -0.000000000000000 -0.000000000000000
 -0.000000000000000 0.000000000000000 0.000000000000000
 -0.000000000000000 0.000000000000000 0.000000000000000
 -0.000000000000000 0.000000000000000 -0.000000000000000
 -0.000000000000000 -0.000000000000000 0.000000000000000
 -0.000000000000000 0.000000000000000 0.000000000000000
 0.000000000000000 0.000000000000000 -0.000000000000000
 -0.000000000000000 0.000000000000000 -0.000000000000000
 -0.000000000000000 0.000000000000000 0.000000000000000
 0.000000000000000 -0.000000000000000 0.000000000000000
 0.000000000000000 0.000000000000000 -0.000000000000000
 -0.000000000000000 -0.000000000000000 0.000000000000000
 -0.000000000000000 0.000000000000000 -0.000000000000000
 -0.000000000000000 -0.000000000000000 -0.000000000000000
 -0.000000000000000 0.000000000000000 -0.000000000000000
 0.000000000000000 -0.000000000000000 0.000000000000000
 238720.294846076 160676.079359643 503582.980600235
 167667.596587381 157605.872539213 532398.315169916
 116144.798065226 153334.648648510 547173.529518951
 79874.8841919298 149305.197627071 554732.332604534
 54732.9966435906 145981.613362189 558653.441445217
 37441.0404504327 143403.661075152 560743.754740284
 25588.4916505147 141463.405709964 561901.534025304
 17473.0561315035 140012.003220972 562575.622706384
 11908.0794020606 138916.420753810 562992.385108275
 8080.49200177843 138057.929381391 563271.438814300
 5425.84931847361 137347.632376895 563476.874449728
 3561.70369404319 136703.260346909 563648.412467667
 2215.48713058322 136063.949875901 563809.979657103
 1204.99045794822 135361.463090387 563982.111691520
 390.486865544483 134541.983741522 564179.317354779
 -316.497124698632 133532.825928606 564419.067917704
 -993.794206981137 132273.870426353 564714.649690892
 -1677.86637462416 130679.147795798 565084.192926853
 -2407.34204104012 128681.883275606 565539.722407667
 -3168.85377883215 126192.125574248 566096.728314854
 -3953.90955999394 123162.052193161 566758.745410038
 -4677.18117886908 119542.797738750 567527.658784144
 -5266.78612016482 115375.408004461 568384.356040672
 -5554.05339927182 110744.910060738 569301.956246838
 -5434.61903610235 105884.058430427 570227.174980493
 -4724.31570129816 101099.587082249 571101.176966879
 -3426.56243549869 96836.1763333489 571848.768139804
 -1499.00549078509 93537.6973049187 572405.845677201
 785.023509750752 91623.3524922032 572716.810488550
 3278.91704605557 91343.8892372782 572752.601567215
 5511.26200851454 92721.0189418170 572514.138373424
 7382.08074483258 95588.1244285430 572021.341692869
 8500.87044967449 99517.9856362832 571335.195604554
 9059.51983838817 104147.412305752 570500.869070603
 8859.26647014141 108913.025691168 569613.435789928
 8333.26411773113 113631.515210596 568698.897009735
 7344.54983482442 117842.073946931 567855.001911236
 6369.37471607251 121679.423218779 567056.918687068
 5213.16098416772 124778.210388979 566394.933915088
 4277.86918967696 127520.990234827 565791.566643340
 3309.23142729476 129541.873707874 565338.793948915
 2613.50933997456 131366.657708350 564921.207613475
 1931.39169840631 132567.108107834 564643.455265386
 1483.12158682096 133743.726349059 564367.270500892
 1055.46672049577 134392.531267520 564214.084837937
 789.160640581635 135152.407208337 564032.981350626
 547.730437022807 135457.009994750 563960.192242901
 391.533398596901 135962.799959462 563838.597232205
 274.938516996044 136063.797058384 563814.302353946
 174.336442019664 136418.432214011 563728.641244240
 139.082164779560 136404.956949192 563731.911794818
 59.2931929800931 136669.230543233 563667.914562322
 77.7635005171460 136595.886886060 563685.690468233
 -0.807698706581497 136803.754091359 563635.283552989
 54.5575198007131 136703.539442592 563659.595258827
 -32.3740800947939 136872.937815115 563618.486075269
 49.4057537438838 136765.800735272 563644.491952429
 -49.3578666431662 136905.608215691 563610.549939311
 51.7270183253820 136803.696231504 563635.295223529
 -58.7756786419049 136917.971240738 563607.545812457
 56.1445596728412 136828.694770956 563629.226650876
 -63.9874562337971 136919.169692601 563607.254101909
 60.0480754598405 136846.933954401 563624.798125055
 -66.5217515946699 136914.438772564 563608.403087153
 62.2679894527223 136861.610124894 563621.234338025
 -67.0584693941235 136906.858264026 563610.244462816
 62.3606306355466 136874.317213065 563618.148571006
 -65.9646323359964 136898.317593309 563612.319142147
 60.1939490116617 136885.808335203 563615.358070650
 -63.6250559669454 136890.062518629 563614.324459109
 55.6399385681394 136896.460311956 563612.771376105
 -60.7336176729750 136883.042250903 563616.029807142
 48.2174173909410 136906.608178332 563610.307137995
 -58.7168273612642 136878.192369475 563617.207868957
 36.4747207271542 136916.859640150 563607.817738429
 -60.5770040943247 136876.754003017 563617.556987026
 16.7062172815195 136928.486620921 563604.994009640
 -72.7509177159873 136880.737594736 563616.588101188
 -19.8729996170359 136944.022475829 563601.219226151
 -109.285570742721 136893.696572749 563613.434807326
 -93.4236745971998 136968.283557792 563595.316314153
 -201.202799052950 136922.108473822 563606.507883396
 -249.516104090942 137010.226343513 563585.073985297
 -417.399754992673 136977.941114218 563592.822368733
 -590.333535875803 137086.465717059 563566.280417416
 -911.108455652431 137083.605912062 563566.548751369
 -1343.87123104794 137228.237820384 563530.482542716
 -2022.83072312659 137281.991130956 563515.361873114
 -3016.96458215471 137495.925777248 563458.754763263
 -4507.61691369771 137657.925797146 563409.244559394
 -6732.42807444195 138010.933644556 563300.680460072
 -10034.4814453744 138385.994771879 563159.502834783
 -14967.1718402513 139027.061387621 562892.050014057
 -22274.0382762827 139835.880006516 562449.814544969
 -33146.3736046859 141080.614421110 561602.687094196
 -49214.3711452960 142771.459740912 559994.871366000
 -72949.9615707942 145212.047762571 556769.040349246
 -107717.106857400 148472.000382825 550230.033706443
 -158097.122979232 152594.852482030 536768.209473770
 -229328.123002715 156776.998494975 509145.936586907
 0.000000000000000 -0.000000000000000 0.000000000000000
 0.000000000000000 -0.000000000000000 0.000000000000000
 0.000000000000000 0.000000000000000 0.000000000000000
 -0.000000000000000 -0.000000000000000 -0.000000000000000
 0.000000000000000 0.000000000000000 -0.000000000000000
 -0.000000000000000 0.000000000000000 0.000000000000000
 0.000000000000000 0.000000000000000 -0.000000000000000
 -0.000000000000000 0.000000000000000 0.000000000000000
 -0.000000000000000 0.000000000000000 0.000000000000000
 -0.000000000000000 0.000000000000000 0.000000000000000
 -0.000000000000000 -0.000000000000000 -0.000000000000000
 -0.000000000000000 0.000000000000000 0.000000000000000
 0.000000000000000 0.000000000000000 -0.000000000000000
 -0.000000000000000 0.000000000000000 0.000000000000000
 -0.000000000000000 0.000000000000000 0.000000000000000
 0.000000000000000 0.000000000000000 0.000000000000000
 0.000000000000000 -0.000000000000000 0.000000000000000
 0.000000000000000 0.000000000000000 -0.000000000000000
 0.000000000000000 0.000000000000000 -0.000000000000000
 -0.000000000000000 0.000000000000000 0.000000000000000
 0.000000000000000 0.000000000000000 -0.000000000000000
 0.000000000000000 -0.000000000000000 0.000000000000000
 0.000000000000000 -0.000000000000000 0.000000000000000
 -0.000000000000000 0.000000000000000 0.000000000000000
 0.000000000000000 0.000000000000000 -0.000000000000000
 232529.298370590 124916.011955983 516455.337232847
 160849.518519203 121530.991288105 543836.051166775
 110018.699114003 116432.258804360 557440.055032805
 74947.9552900579 111488.470931349 564227.901514299
 51020.4493382644 107358.615850947 567689.211938971
 34748.7646966787 104143.514949729 569514.399858310
 23680.3797514936 101721.425289913 570519.054240798
 16130.4135942388 99921.8017794415 571100.204243028
 10960.0388102438 98572.0547731995 571457.284114103
 7390.26562323499 97535.5831745005 571692.394552200
 4897.22270308151 96690.5456037380 571862.706950408
 3112.03120594084 95948.8217101510 572000.121393525
 1787.02638720540 95220.4313049380 572127.499775000
 733.908470670117 94437.9849537441 572259.493915333
 -171.963340507456 93514.3072406439 572411.604328486
 -1041.05476205485 92377.2273961114 572595.288195414
 -1939.05673231324 90919.4233978329 572826.237621841
 -2936.70379896368 89047.2199224963 573116.016522721
 -4051.91929530858 86622.6754126189 573480.683244331
 -5308.34528054538 83534.4372552893 573928.409527551
 -6642.55109068239 79637.4246431241 574468.238557380
 -7986.16511836444 74860.1894590672 575093.186536629
 -9134.28042006512 69152.2823854693 575790.349660437
 -9892.46983825101 62637.2181539427 576522.955260616
 -9919.65376364232 55558.1844749141 577247.683933908
 -9014.64990433504 48430.6851581322 577904.148472925
 -6924.95255958121 41907.9353599393 578442.538188466
 -3795.14591614186 36803.2565660883 578818.725659084
 219.108740288223 33815.7082692873 579013.341699142
 4442.33259116099 33411.7783404008 579019.791327793
 8469.28350224879 35655.2334812459 578841.062436275
 11527.4715714583 40150.1879572315 578493.802737910
 13574.5349405799 46299.4480657962 577989.699830326
 14226.9120711401 53210.2548421963 577378.787064912
 14003.7135581518 60333.5023795291 576683.417914197
 12798.0593846470 66906.0840525225 575985.924821730
 11343.7971185290 72896.8033537448 575288.948553454
 9483.58140636932 77801.0337921845 574679.963827326
 7860.41478401920 82047.8372746665 574113.548244573
 6170.30410791321 85204.9168012408 573674.166666157
 4895.24806085578 87955.5925050891 573271.183902960
 3663.75014110973 89788.0286256875 572996.236331808
 2823.91237543907 91505.3454392674 572729.253028808
 2034.74444003135 92471.3050014368 572577.433685956
 1534.97274288936 93548.1852793453 572404.036402277
 1075.40833048029 93990.8066322994 572332.570945890
 790.141290740194 94692.7398491669 572217.319465776
 550.275172773604 94834.6548935837 572194.097687532
 380.086825197180 95322.3340642226 572113.195235483
 280.708410162841 95298.7121902701 572117.187871213
 160.879166129794 95663.1187357524 572056.414902974
 151.873566889818 95553.7554552642 572074.695081696
 45.0693019432582 95843.7654652618 572026.197468436
 96.4683391561726 95695.5571842534 572051.003870332
 -16.5478313639073 95935.9960181422 572010.738006007
 77.2874826198007 95776.8283191152 572037.405406129
 -50.1967252997750 95979.3743729529 572003.459058829
 74.5642099177130 95826.1720506176 572029.141906516
 -69.2649671990402 95995.6877412187 572000.719525294
 78.1036700865522 95858.9029347516 572023.657402352
 -80.3285834805478 95997.0316801773 572000.492531182
 82.7970677774805 95883.0826498507 572019.604214933
 -86.5009128602806 95990.2593351504 572001.628171077
 86.1944531743695 95902.8401175496 572016.291575601
 -89.2202146500247 95979.3900090798 572003.451679480
 87.2246156385312 95920.1873225527 572013.382759418
 -89.1903397476841 95966.9006211924 572005.547202338
 85.5080007276962 95936.0231713702 572010.727300148
 -86.8953818128524 95954.4270098607 572007.640146880
 80.9407351280534 95950.7180352628 572008.263189541
 -82.9386977824584 95943.1770256391 572009.527808234
 73.3453580657298 95964.5057741993 572005.951238247
 -78.3916181243633 95934.2367929531 572011.027923158
 61.9997972186369 95977.8271894105 572003.717508921
 -75.3767701765459 95928.8989054288 572011.923541052
 44.7529037400409 95991.7449169149 572001.383656529
 -78.2984267070344 95929.1433989380 572011.882145907
 16.1337203890647 96008.5812044343 571998.559504143
 -96.5969009407254 95938.4649736681 572010.315997478
 -36.8397215287393 96033.0325208396 571994.453913398
 -150.955009261362 95963.3907166302 572006.123092010
 -144.014607272017 96074.2312511825 571987.518525787
 -287.221412695144 96016.3354575936 571997.186032549
 -372.961619034394 96149.6485863581 571974.742428676
 -607.490626989882 96121.0342518869 571979.350789420
 -875.371606232447 96292.5640533719 571950.151527717
 -1339.20902671704 96322.9633259718 571944.134732831
 -1989.98815202236 96566.4812098037 571901.175601092
 -2988.32994872220 96709.4938939771 571872.663863984
 -4470.31754148096 97093.1256589167 571797.989862556
 -6677.60107869508 97448.9697657302 571715.932903248
 -9986.53685923986 98106.4410267904 571555.242571193
 -14890.2838744809 98864.6337780832 571317.830663514
 -22224.7957919405 100050.744968333 570872.934095923
 -33089.2530379882 101557.858257347 570079.909100091
 -49254.6204861416 103715.598594183 568521.817496054
 -73129.2758759163 106501.645614376 565428.606007243
 -108291.914949849 110130.801938177 559056.408263915
 -159406.276366272 114320.541279040 545820.898186125
 -231991.937362910 118207.590025674 518272.811035777
 -0.000000000000000 0.000000000000000 -0.000000000000000
 0.000000000000000 0.000000000000000 -0.000000000000000
 -0.000000000000000 0.000000000000000 0.000000000000000
 0.000000000000000 0.000000000000000 -0.000000000000000
 0.000000000000000 0.000000000000000 0.000000000000000
 -0.000000000000000 0.000000000000000 0.000000000000000
 0.000000000000000 0.000000000000000 0.000000000000000
 0.000000000000000 0.000000000000000 0.000000000000000
 -0.000000000000000 -0.000000000000000 0.000000000000000
 -0.000000000000000 -0.000000000000000 0.000000000000000
 -0.000000000000000 -0.000000000000000 -0.000000000000000
 0.000000000000000 0.000000000000000 0.000000000000000
 -0.000000000000000 -0.000000000000000 0.000000000000000
 0.000000000000000 0.000000000000000 -0.000000000000000
 0.000000000000000 0.000000000000000 0.000000000000000
 0.000000000000000 0.000000000000000 -0.000000000000000
 -0.000000000000000 -0.000000000000000 0.000000000000000
 0.000000000000000 -0.000000000000000 -0.000000000000000
 0.000000000000000 -0.000000000000000 -0.000000000000000
 0.000000000000000 0.000000000000000 -0.000000000000000
 0.000000000000000 -0.000000000000000 0.000000000000000
 0.000000000000000 -0.000000000000000 0.000000000000000
 -0.000000000000000 0.000000000000000 -0.000000000000000
 0.000000000000000 0.000000000000000 0.000000000000000
 -0.000000000000000 0.000000000000000 -0.000000000000000
 220458.147651143 101969.597804230 526688.148962809
 149587.475473799 97636.4156408944 551806.775531231
 100938.550505003 91271.8828268565 563809.234074070
 68190.9422739981 85233.9391548224 569635.998693847
 46209.8132201098 80285.3678682526 572554.724780455
 31408.3543523678 76484.3827475333 574076.348992540
 21385.6172600110 73656.5611241544 574906.397927325
 14557.3729644493 71570.1236144606 575383.176933584
 9864.50185824098 70024.3409704801 575672.896074446
 6603.73001698102 68842.6192265550 575862.036018950
 4288.21558916680 67896.4217357497 575996.256170595
 2590.95804115997 67065.9973724774 576103.670299768
 1267.49313711639 66264.6110136083 576200.828521066
 151.113817078631 65390.1867103008 576302.091482068
 -904.252493402822 64359.8442949802 576417.377227434
 -1998.57836778188 63052.2274369835 576559.122987177
 -3239.99246804978 61354.9474324423 576736.571472947