# OOMMF OVF 2.0
#
# Segment count: 1
#
# Begin: Segment
# Begin: Header
#
# Title: Oxs_TimeDriver::Magnetization
# Desc: Oxs vector field output
# Desc:  MIF source file: C:/Users/Victor H. González/Documents/GitHub/Intro-to-magnetism-in-python/domain_wall_conversion_thin_film/drive-46/domain_wall_conversion_thin_film.mif
# Desc:  Iteration: 421, State id: 2976
# Desc:  Stage: 34, Stage iteration: 11
# Desc:  Stage simulation time: 2e-12 s
# Desc:  Total simulation time: 7e-11 s
# meshunit: m
# meshtype: rectangular
# xbase: 1.0000000000000001e-09
# ybase: 1.0000000000000001e-09
# zbase: 1.0000000000000001e-09
# xnodes: 125
# ynodes: 25
# znodes: 1
# xstepsize: 2.0000000000000001e-09
# ystepsize: 2.0000000000000001e-09
# zstepsize: 2.0000000000000001e-09
# xmin: 0
# ymin: 0
# zmin: 0
# xmax: 2.5000000000000004e-07
# ymax: 5.0000000000000004e-08
# zmax: 2.0000000000000001e-09
# valuedim: 3
# valuelabels: Magnetization_x Magnetization_y Magnetization_z
# valueunits: A/m A/m A/m
#
# End: Header
#
# Begin: Data Text
 0.000000000000000 -0.000000000000000 -0.000000000000000
 -0.000000000000000 0.000000000000000 0.000000000000000
 0.000000000000000 0.000000000000000 -0.000000000000000
 0.000000000000000 0.000000000000000 0.000000000000000
 0.000000000000000 0.000000000000000 0.000000000000000
 0.000000000000000 -0.000000000000000 0.000000000000000
 -0.000000000000000 -0.000000000000000 0.000000000000000
 -0.000000000000000 -0.000000000000000 -0.000000000000000
 -0.000000000000000 0.000000000000000 -0.000000000000000
 -0.000000000000000 -0.000000000000000 -0.000000000000000
 0.000000000000000 -0.000000000000000 -0.000000000000000
 0.000000000000000 0.000000000000000 0.000000000000000
 0.000000000000000 0.000000000000000 -0.000000000000000
 0.000000000000000 0.000000000000000 0.000000000000000
 0.000000000000000 0.000000000000000 -0.000000000000000
 -0.000000000000000 0.000000000000000 -0.000000000000000
 0.000000000000000 -0.000000000000000 -0.000000000000000
 -0.000000000000000 -0.000000000000000 0.000000000000000
 0.000000000000000 -0.000000000000000 -0.000000000000000
 -0.000000000000000 -0.000000000000000 -0.000000000000000
 0.000000000000000 -0.000000000000000 0.000000000000000
 0.000000000000000 -0.000000000000000 0.000000000000000
 0.000000000000000 0.000000000000000 -0.000000000000000
 -0.000000000000000 -0.000000000000000 0.000000000000000
 0.000000000000000 -0.000000000000000 0.000000000000000
 260404.556421001 -87259.5664657917 510857.352942466
 195926.520957789 -75523.0780085547 540656.141251989
 154657.356492935 -59909.1551431279 555780.527917859
 129435.134647983 -39968.4072607253 563958.395929788
 113881.175022401 -15555.8763384156 568497.223112709
 103250.958636722 12633.5311587866 570595.858231602
 94439.8972964088 43226.6445410679 570624.712924672
 85755.4275803337 74560.2766390958 568758.975127440
 76530.9086169155 105026.835938243 565254.264697818
 66793.2372233800 133367.077350528 560492.538880046
 56897.4503767934 158720.987388969 554950.744033100
 47314.6089089448 180713.374332217 549093.802661493
 38450.7213255229 199254.647762100 543340.710212983
 30582.2049033069 214584.134111139 537976.187327120
 23855.9968144129 226987.054007047 533205.184454534
 18268.6461906472 236917.929235911 529089.927491470
 13775.2134201778 244720.893540707 525663.321680205
 10216.8662146488 250834.552084600 522855.279331930
 7492.52461847597 255530.889780793 520622.537394107
 5403.37754302434 259155.467911797 518853.781871680
 3873.44876832706 261887.018328301 517494.141054516
 2719.26351515283 263973.380812790 516440.373933140
 1914.36524500851 265518.738990335 515651.175166596
 1304.21208261191 266691.046259454 515047.750093019
 906.842196040117 267545.703636601 514605.163307586
 593.056125116153 268191.013819639 514269.606715025
 411.394788471932 268655.327759537 514027.378279353
 251.179733920708 269003.835876678 513845.184070430
 177.873017980689 269253.158478934 513714.614363177
 94.3643332384325 269437.426205085 513618.014146070
 72.5804071744339 269571.039621453 513547.903636549
 26.6107190264368 269665.543855104 513498.289918477
 27.5230643396319 269738.203757990 513460.125692243
 0.0588531491435520 269784.053947318 513436.037141675
 9.55892453536689 269825.234298346 513414.396802884
 -8.26167729218919 269844.887811396 513404.067430128
 3.16740655996597 269870.056689182 513390.837951502
 -8.99803455924642 269875.755192134 513387.842355574
 1.38367308190267 269892.784887403 513378.889967056
 -6.91867805392968 269891.246187269 513379.698842498
 1.24199442656247 269903.976757087 513373.006038657
 -4.08130675330380 269898.940139950 513375.653975405
 1.57014614785663 269909.128981545 513370.297241629
 -1.33370071707142 269902.709778857 513373.672145594
 1.95770672846696 269911.085651264 513369.268498537
 0.999940487713762 269904.488053023 513372.737226896
 2.29081443952434 269911.313890762 513369.148496980
 2.81637909164059 269905.207153147 513372.359154332
 2.55219500354577 269910.573857339 513369.537578427
 4.10465785410650 269905.296658669 513372.312088165
 2.74179155810727 269909.268571672 513370.223845898
 4.89282607965903 269904.947681481 513372.495555729
 2.85046523552841 269907.625537679 513371.087682669
 5.22568257646287 269904.252005295 513372.861302733
 2.85597386881780 269905.790132727 513372.052652530
 5.15466516857017 269903.273463933 513373.375767465
 2.72760144922796 269903.872798711 513373.060688636
 4.73280924530512 269902.081997778 513374.002176645
 2.43376200368800 269901.972098252 513374.059971431
 4.01264502035739 269900.766803149 513374.693633190
 1.94994554856803 269900.184959586 513374.999542224
 3.04574834260674 269899.437566796 513375.392468173
 1.26425158868589 269898.609874792 513375.827621496
 1.88079036757341 269898.219264772 513376.032975993
 0.375421387920089 269897.346646654 513376.491741641
 0.553024484072428 269897.245084742 513376.545135596
 -0.726289996311424 269896.496452292 513376.938712921
 -0.948548766507871 269896.652882986 513376.856472573
 -2.11385090665690 269896.167783819 513377.111499082
 -2.76309258332524 269896.592665177 513376.888124205
 -4.05107549388880 269896.496697331 513376.938568627
 -5.34401870516169 269897.255476562 513376.539644792
 -7.27305598410065 269897.693305949 513376.309440970
 -9.86871819522022 269898.937432718 513375.655320058
 -13.5965295553584 269900.130100044 513375.028207560
 -19.1374406805064 269902.155823654 513373.963028417
 -27.2566214002913 269904.490563437 513372.735184455
 -39.5547840170296 269907.836033578 513370.975497340
 -57.8565975463000 269911.997059657 513368.786055290
 -85.5181666290862 269917.586766892 513365.843274151
 -126.906670211347 269924.734332672 513362.076599094
 -189.159450476370 269934.079167304 513357.143831467
 -282.341238940906 269946.089637157 513350.785499577
 -421.974296459437 269961.570756561 513342.548647921
 -630.736176101197 269981.405670188 513331.903123336
 -942.790045916254 270006.798022981 513318.069201062
 -1408.68689496606 270039.340699565 513299.883183092
 -2103.90415464557 270081.267718611 513275.444975518
 -3140.48781865927 270135.972893954 513241.359873596
 -4685.04967327823 270208.788841835 513191.251622811
 -6984.71303588559 270308.573259879 513112.550037529
 -10405.5857383733 270450.143217172 512979.964344859
 -15488.4796242401 270658.369592281 512741.800488880
 -23029.0510794399 270973.959712945 512291.690313114
 -34189.7894683931 271460.884423307 511409.861582882
 -50648.3340090366 272212.702361634 509642.022340275
 -74769.5506614546 273350.335609879 506052.475851913
 -109729.455133621 274994.416404750 498735.919723345
 -159341.777729634 277191.744490869 483916.247563635
 -226874.418483946 279846.831367176 454547.851398864
 -0.000000000000000 -0.000000000000000 -0.000000000000000
 -0.000000000000000 -0.000000000000000 -0.000000000000000
 0.000000000000000 0.000000000000000 -0.000000000000000
 0.000000000000000 -0.000000000000000 0.000000000000000
 -0.000000000000000 -0.000000000000000 -0.000000000000000
 -0.000000000000000 -0.000000000000000 -0.000000000000000
 0.000000000000000 0.000000000000000 0.000000000000000
 0.000000000000000 0.000000000000000 -0.000000000000000
 0.000000000000000 0.000000000000000 -0.000000000000000
 0.000000000000000 0.000000000000000 -0.000000000000000
 -0.000000000000000 0.000000000000000 0.000000000000000
 -0.000000000000000 -0.000000000000000 0.000000000000000
 0.000000000000000 -0.000000000000000 -0.000000000000000
 -0.000000000000000 -0.000000000000000 -0.000000000000000
 -0.000000000000000 0.000000000000000 0.000000000000000
 -0.000000000000000 0.000000000000000 0.000000000000000
 -0.000000000000000 -0.000000000000000 -0.000000000000000
 0.000000000000000 0.000000000000000 -0.000000000000000
 0.000000000000000 -0.000000000000000 0.000000000000000
 -0.000000000000000 -0.000000000000000 -0.000000000000000
 -0.000000000000000 0.000000000000000 0.000000000000000
 0.000000000000000 -0.000000000000000 -0.000000000000000
 0.000000000000000 0.000000000000000 -0.000000000000000
 0.000000000000000 -0.000000000000000 0.000000000000000
 -0.000000000000000 0.000000000000000 0.000000000000000
 252358.734293881 -211433.137639025 477505.075924547
 194417.502175629 -199867.193879476 508581.300932834
 158694.184337075 -183443.966392010 526843.873507093
 137975.415741272 -161259.865605685 539775.916835737
 125791.222520462 -133242.526035147 550293.555834139
 117294.793777364 -100361.436482471 559079.165610650
 109406.570802063 -64382.1997629707 565937.394610936
 100523.426613171 -27450.6631955945 570562.443376768
 90250.4060083674 8418.94056311182 572873.446456649
 78873.7643777059 41561.8161058546 573106.922602470
 67087.6338464313 71007.0262651844 571714.309428986
 55585.7481031425 96201.3486938562 569258.750584738
 44957.9274524129 117261.604774230 566240.673923161
 35584.0972407136 134355.148304195 563100.760208793
 27600.3326425604 148113.314818762 560089.874583908
 21063.1303323465 158883.804171294 557415.716779371
 15786.5418300352 167366.755334878 555102.832190328
 11712.5845769663 173828.515984265 553214.662127854
 8523.48097531657 178861.814117457 551666.386254116
 6193.74195606530 182604.020935151 550470.170943800
 4381.05136350185 185509.013726771 549515.434009884
 3143.14410015471 187616.715216485 548807.879696112
 2150.96780648803 189257.570562815 548248.981141011
 1541.55156256550 190417.902915570 547849.108667721
 1005.33329552154 191327.799340100 547533.252419102
 735.628223512269 191955.571888146 547313.911089616
 440.478861187765 192450.722360504 547140.316044516
 344.677778674009 192787.563716810 547021.787932954
 173.099013871144 193050.118631048 546929.265749484
 161.123002145606 193232.638208385 546864.811055169
 52.5889355703543 193365.345101462 546817.922665485
 77.3375874051579 193468.653000688 546781.377083197
 2.27305924101139 193528.765377042 546760.109158002
 39.7873516794363 193592.928532855 546737.392574387
 -15.5640095850244 193612.313295021 546730.529510025
 22.8356417225269 193657.880054758 546714.390675086
 -18.9646599695929 193654.509670384 546715.584673297
 14.6835798136801 193691.391613123 546702.519291218
 -16.3740498944001 193675.703559155 546708.077114978
 10.1591735945130 193708.171320494 546696.574216870
 -11.6847473738404 193686.483480358 546704.258242498
 7.14762783175482 193715.948667711 546693.818495034
 -6.67353505582717 193692.243959301 546702.217468957
 4.87567907928069 193718.798512683 546692.808695185
 -2.14133517620830 193695.639148600 546701.014605085
 3.11049475989573 193718.898080654 546692.773426486
 1.56867465762325 193697.895964843 546700.215013981
 1.79936010970551 193717.443771710 546693.288760085
 4.33994319402015 193699.518305998 546699.640194860
 0.918105990672710 193715.123817636 546694.110818358
 6.17800380372014 193700.666769261 546699.233267228
 0.416936268396477 193712.359246649 546695.090406822
 7.15882189750588 193701.363573601 546698.986370451
 0.210722950721371 193709.425687494 546696.129856227
 7.39824050990485 193701.600935658 546698.902267261
 0.188454389964738 193706.515086793 546697.161153133
 7.03040456914095 193701.394368999 546698.975460974
 0.229632123670495 193703.768061896 546698.134475114
 6.19179749965799 193700.803701783 546699.184750577
 0.221555927337300 193701.292326553 546699.011660872
 5.01035473273234 193699.934964479 546699.492563925
 0.0736255777977725 193699.174368613 546699.762071388
 3.59828335168339 193698.931435987 546699.848132052
 -0.275632183944492 193697.487700950 546700.359665387
 2.04401122280221 193697.960207708 546700.192250922
 -0.865638484904212 193696.300262469 546700.780376141
 0.393347844948176 193697.200706680 546700.461348114
 -1.74731715829239 193695.685111297 546700.998321946
 -1.39929840848989 193696.843265094 546700.587988691
 -3.06760558288348 193695.741945123 546700.978179953
 -3.58754344330282 193697.108956079 546700.493843920
 -5.25692416927838 193696.642059836 546700.659252491
 -6.89713154826116 193698.306851082 546700.069394045
 -9.43476517545788 193698.716460144 546699.924229625
 -13.1120886339400 193700.952438285 546699.131929597
 -18.2919752682614 193702.616997447 546698.542008065
 -26.3719635035555 193705.982784961 546697.349122740
 -38.0301904253129 193709.595805955 546696.068255844
 -56.0492157682702 193715.123414812 546694.108088673
 -82.6558718905869 193721.974146512 546691.677182655
 -123.143428365140 193731.497598471 546688.294802395
 -183.516771838445 193743.923769896 546683.874212364
 -274.494691781499 193760.649393123 546677.908278192
 -410.486717688348 193782.814759987 546669.966437110
 -614.345411424066 193812.373695924 546659.296437980
 -918.964726591759 193851.768336676 546644.900659079
 -1374.28812602025 193904.421668756 546625.270719761
 -2053.89811400665 193975.237599083 546598.013809889
 -3067.83118928943 194071.213408427 546559.193992722
 -4579.18485417243 194202.981027221 546501.814476596
 -6830.37433996570 194386.641851394 546413.011792466
 -10180.4901941761 194647.502473566 546267.981306070
 -15160.6793651581 195025.224725041 546017.687920578
 -22553.6926915586 195582.196367054 545562.952747172
 -33506.8230965196 196414.455589515 544700.518121153
 -49685.7796374376 197664.285863553 543010.270064823
 -73466.9979654896 199525.876369617 539622.113028066
 -108127.502113410 202218.975442068 532743.774490022
 -157875.941772793 205857.530948599 518746.435130980
 -227286.929928137 210013.668870337 490545.523240670
 -0.000000000000000 0.000000000000000 -0.000000000000000
 -0.000000000000000 -0.000000000000000 0.000000000000000
 -0.000000000000000 -0.000000000000000 -0.000000000000000
 0.000000000000000 0.000000000000000 0.000000000000000
 0.000000000000000 -0.000000000000000 -0.000000000000000
 -0.000000000000000 0.000000000000000 0.000000000000000
 0.000000000000000 0.000000000000000 -0.000000000000000
 -0.000000000000000 0.000000000000000 0.000000000000000
 0.000000000000000 0.000000000000000 0.000000000000000
 0.000000000000000 -0.000000000000000 -0.000000000000000
 -0.000000000000000 0.000000000000000 0.000000000000000
 -0.000000000000000 0.000000000000000 0.000000000000000
 -0.000000000000000 0.000000000000000 -0.000000000000000
 -0.000000000000000 -0.000000000000000 0.000000000000000
 -0.000000000000000 0.000000000000000 0.000000000000000
 0.000000000000000 0.000000000000000 -0.000000000000000
 -0.000000000000000 0.000000000000000 -0.000000000000000
 -0.000000000000000 0.000000000000000 0.000000000000000
 0.000000000000000 -0.000000000000000 0.000000000000000
 0.000000000000000 0.000000000000000 -0.000000000000000
 -0.000000000000000 -0.000000000000000 0.000000000000000
 -0.000000000000000 0.000000000000000 -0.000000000000000
 -0.000000000000000 -0.000000000000000 -0.000000000000000
 -0.000000000000000 0.000000000000000 -0.000000000000000
 0.000000000000000 -0.000000000000000 0.000000000000000
 233725.423003971 -355844.355408039 393887.320646212
 190499.497732545 -343459.199948654 426785.331676569
 166894.145559283 -324549.098408788 450792.886922675
 155925.815274033 -297912.921149801 472583.359359087
 151068.584208012 -263372.130055044 494179.526058755
 147364.741028327 -222066.689511295 515140.775430511
 141632.911772329 -176279.524672243 534102.656316387
 132509.515399474 -128913.706419156 549747.655407344
 119981.126587942 -82947.4881579022 561359.281985239
 105063.258018928 -40699.6481201104 568951.008837622
 89066.9820863818 -3785.97904429188 573107.964579712
 73332.2785250688 27335.3429009848 574695.707270211
 58824.5936047244 52594.2741315230 574607.265456866
 46116.0495570650 72789.1039268636 573563.471921613
 35477.3621368983 88424.8795425804 572120.964004718
 26789.0077284156 100599.760898203 570580.438827122
 19991.9332911939 109733.846915335 569173.791951494
 14651.0915685124 116785.063540579 567931.857223800
 10705.3322546946 121938.670486521 566935.936858210
 7637.56788852326 125930.805657045 566112.267790865
 5513.45427908104 128769.269290075 565498.078784015
 3819.30173400504 130996.919734879 565000.194649735
 2756.61544128835 132530.497609564 564648.623725119
 1832.38278239092 133759.511045903 564362.503696072
 1349.97577220993 134575.691738998 564169.797807703
 835.906237985289 135245.214920160 564010.667542700
 654.964788518301 135676.755278480 563907.252212834
 352.731821833306 136033.702746299 563821.520782414
 320.403867739480 136265.097036851 563765.661131377
 126.951240471819 136446.578285108 563721.842008688
 162.356710024033 136577.889371966 563690.033418187
 26.8226059447403 136659.701124185 563670.227499374
 88.0997177248983 136743.688701623 563649.852158868
 -13.4053936890627 136768.043700274 563643.949708231
 52.4215205992915 136831.336556101 563628.585673452
 -25.7941581885475 136822.325984226 563630.774928879
 33.9979759177695 136877.338926908 563617.417165604
 -25.7333281633964 136849.335430867 563624.217657409
 23.1569836242960 136900.932771683 563611.687307846
 -20.5583212785751 136863.027622758 563620.893196205
 15.7410917624137 136912.248179645 563608.938937818
 -13.7742140728101 136870.519219134 563619.074179499
 10.1047297795748 136916.666061337 563607.865854038
 -7.06831892899486 136875.300260570 563617.913243198
 5.67673079640513 136917.111896476 563607.757609583
 -1.24613495389484 136878.954537885 563617.025827878
 2.28942627007143 136915.245345530 563608.211071070
 3.33974746296882 136882.086819458 563616.265110222
 -0.121032885052126 136912.066980083 563608.983174706
 6.59035276303429 136884.828534220 563615.599210778
 -1.63551204077042 136908.221942096 563609.917196263
 8.56007053051521 136887.116311801 563615.043548843
 -2.38705620898001 136904.149327551 563610.906469349
 9.39711884330512 136888.844128873 563614.623891853
 -2.55610795361779 136900.155678796 563611.876532590
 9.30105476770454 136889.941790742 563614.357295853
 -2.34891134101670 136896.453335117 563612.775812214
 8.48967014763556 136890.408602421 563614.243929824
 -1.97123572458754 136893.184077304 563613.569876819
 7.17404540220338 136890.319288613 563614.265640602
 -1.60432159088842 136890.437346445 563614.237010143
 5.54155585848679 136889.813338366 563614.388543691
 -1.38808562824660 136888.266557571 563614.764246765
 3.74439285128659 136889.076255584 563614.567579541
 -1.41711598665161 136886.705033121 563615.143500569
 1.88674841261582 136888.320559158 563614.751129646
 -1.75797843853492 136885.784006627 563615.367190960
 -0.00323293982436234 136887.775420957 563614.883533342
 -2.50384824979400 136885.558582464 563615.421937066
 -2.04352368837250 136887.696767542 563614.902632552
 -3.90012929280224 136886.153589122 563615.277419237
 -4.66450695146287 136888.415412380 563614.728075953
 -6.61579447189607 136887.850909449 563614.865160265
 -8.98764947972133 136890.451347430 563614.233540211
 -12.3293239797821 136891.255632278 563614.038131952
 -17.6734941550550 136894.741646127 563613.191291055
 -25.0107286032652 136897.605505312 563612.495409191
 -36.8129434176830 136903.065065583 563611.168644178
 -53.7564932241528 136909.337260401 563609.643708443
 -80.1437524323593 136918.813582944 563607.338546987
 -119.090994151563 136931.116754336 563604.342674669
 -178.446710561510 136948.393063947 563600.129341694
 -266.989367705760 136971.728689178 563594.423549928
 -400.457361923758 137003.811733502 563586.546330191
 -600.051558712315 137047.632604592 563575.714820647
 -899.313728017857 137107.638940947 563560.721288184
 -1346.65990890788 137189.951782985 563539.797740028
 -2015.46116959890 137303.012972520 563510.266583442
 -3013.96734517636 137459.005801637 563467.778781420
 -4503.89090269680 137675.045654424 563405.091182880
 -6725.01550129950 137976.177046375 563309.283372975
 -10033.5113486122 138398.553384651 563156.433924938
 -14956.8678276840 138995.276518590 562900.173396941
 -22274.7386266248 139843.310214310 562447.939464107
 -33134.8515556506 141052.645662057 561610.392322044
 -49215.3428233900 142773.098504600 559994.368162906
 -72939.1639002208 145188.755787867 556776.529284692
 -107716.671560838 148467.014326598 550231.464317336
 -158089.457530833 152576.925088630 536775.563292616
 -229325.315440867 156764.854662481 509150.940331645
 0.000000000000000 -0.000000000000000 0.000000000000000
 0.000000000000000 -0.000000000000000 0.000000000000000
 0.000000000000000 0.000000000000000 0.000000000000000
 -0.000000000000000 -0.000000000000000 -0.000000000000000
 0.000000000000000 0.000000000000000 -0.000000000000000
 -0.000000000000000 0.000000000000000 0.000000000000000
 0.000000000000000 0.000000000000000 -0.000000000000000
 -0.000000000000000 0.000000000000000 0.000000000000000
 -0.000000000000000 0.000000000000000 0.000000000000000
 -0.000000000000000 0.000000000000000 0.000000000000000
 -0.000000000000000 -0.000000000000000 -0.000000000000000
 -0.000000000000000 0.000000000000000 0.000000000000000
 0.000000000000000 0.000000000000000 -0.000000000000000
 -0.000000000000000 0.000000000000000 0.000000000000000
 -0.000000000000000 0.000000000000000 0.000000000000000
 0.000000000000000 0.000000000000000 0.000000000000000
 0.000000000000000 -0.000000000000000 0.000000000000000
 0.000000000000000 0.000000000000000 -0.000000000000000
 0.000000000000000 0.000000000000000 -0.000000000000000
 -0.000000000000000 0.000000000000000 0.000000000000000
 0.000000000000000 0.000000000000000 -0.000000000000000
 0.000000000000000 -0.000000000000000 0.000000000000000
 0.000000000000000 -0.000000000000000 0.000000000000000
 -0.000000000000000 0.000000000000000 0.000000000000000
 0.000000000000000 0.000000000000000 -0.000000000000000
 191938.185702939 -495233.001107373 233032.202674328
 174571.029455131 -484505.807930726 266794.073690496
 171997.847749220 -465688.038364093 299918.974548526
 177951.675675194 -437328.086062572 336863.987783257
 186271.317530878 -398602.865145369 377913.683482370
 191837.080651865 -350031.898999154 420804.234971580
 191228.603101163 -293833.311090120 462053.683731441
 182959.279307269 -233742.631068817 498287.351371065
 167638.324847790 -174097.841231419 527245.041437836
 147224.623858492 -118939.499143049 548250.221772254
 124428.333420839 -70822.8652169061 562051.342498691
 101651.997807997 -31068.8939024704 570176.810448584
 80700.1760738708 715.778179934822 574357.875582152
 62565.9908841896 25154.1824720577 576066.631466224
 47517.3182663074 43845.5688088988 576385.002026078
 35555.3490825920 57629.7640286180 576033.529796331
 26158.0132216768 68030.5098882146 575402.127271566
 19122.4324438788 75486.6504364001 574748.726125881
 13715.3496387880 81148.8239173831 574131.306898615
 9891.82394964992 85096.7471573524 573638.122375236
 6920.33865923171 88158.7024379368 573219.113513586
 4977.25285170644 90220.4177593441 572918.408827452
 3372.47784834287 91874.2012516215 572667.231066646
 2459.23114544872 92939.4419014896 572499.967092761
 1581.58011966651 93830.7420606088 572357.659552732
 1206.02659416226 94378.5276358253 572268.502559024
 702.749956018443 94853.5857525120 572190.792841331
 596.041431593759 95139.2586985644 572143.483917190
 283.381565700279 95383.4191798131 572103.070294555
 303.613900669129 95541.6005835813 572076.664771887
 90.2569155905592 95654.6127058580 572057.852775208
 163.955185539824 95754.9036559471 572041.057568893
 6.52161405213587 95791.3446401687 572034.979917747
 96.0232721919323 95868.3528326301 572022.070994371
 -25.2077402517797 95859.1310891062 572023.623945210
 61.0181312383357 95928.6975659612 572011.959018416
 -32.7511672540286 95892.3432055230 572018.056919461
 40.9131209689280 95960.3767332636 572006.647184565
 -29.5366731609253 95908.8454958986 572015.290427825
 27.6588540180504 95976.1946557253 572003.994124511
 -22.0812534891913 95917.7567332946 572013.796560599
 17.8663809372691 95982.9427091773 572002.862221580
 -13.5914517397706 95923.5600090792 572012.823676583
 10.2318589488903 95984.3302111443 572002.629582441
 -5.66047085727092 95928.2877252880 572012.030976668
 4.30975975787798 95982.4921080157 572002.938095742
 0.943142671062954 95932.6964411233 572011.291630371
 -0.0561706499239190 95978.7502479352 572003.565986123
 5.90696530208146 95936.9105115708 572010.584837905
 -2.98138394412590 95973.9880863192 572004.365019987
 9.19288014417358 95940.7817851598 572009.935495830
 -4.63233819191828 95968.8295715893 572005.230508603
 10.9345272222951 95944.0917398093 572009.380290795
 -5.24227260944036 95963.7229034655 572006.087256967
 11.3678589861559 95946.6609741826 572008.949334429
 -5.09190328416686 95958.9817347412 572006.882649592
 10.7776650833786 95948.4008354758 572008.657505249
 -4.47681323827541 95954.8103730220 572007.582420230
 9.45570737915870 95949.3276747659 572008.502060371
 -3.67373233944809 95951.3251799429 572008.167059455
 7.67029560407570 95949.5534912116 572008.464208358
 -2.91321409843593 95948.5765510501 572008.628124909
 5.64649356531424 95949.2635874193 572008.512860735
 -2.36448786325605 95946.5723730356 572008.964304122
 3.55266788463752 95948.6907027494 572008.608973508
 -2.13898349205841 95945.3037519946 572009.177097153
 1.48338919537497 95948.0954906609 572008.708823139
 -2.32314333838878 95944.7767131157 572009.265498448
 -0.580701816386273 95947.7655121075 572008.764174900
 -3.06214896842204 95945.0596931394 572009.218029835
 -2.87390559184369 95948.0503621159 572008.716387652
 -4.74277878704909 95946.3672087370 572008.998702776
 -6.08591616460162 95949.4617507965 572008.479616076
 -8.38553976861360 95949.2182289231 572008.520435615
 -11.9130272150966 95952.8894083086 572007.904554016
 -16.4973700313298 95954.7401626250 572007.593977702
 -24.3018291555066 95960.0262253241 572006.706932932
 -34.9536013801011 95965.2491460000 572005.830157868
 -52.2398931317560 95974.1774625424 572004.330867680
 -77.1860014709308 95985.3500562321 572002.453331194
 -116.002336616743 96001.7848087947 571999.688686089
 -173.526798619288 96024.0156242918 571995.942565886
 -261.104173964401 96055.2972516140 571990.656999321
 -392.043433268094 96098.5239255296 571983.321436281
 -589.389869637518 96158.6107386452 571973.053736272
 -884.899906614436 96241.9634226719 571958.653600681
 -1328.12809838337 96357.4721285066 571938.347762028
 -1991.25133375431 96517.6735418479 571909.410319672
 -2983.13811419409 96739.5833101392 571867.601729607
 -4464.92803230195 97047.2556721614 571805.818949202
 -6677.03446440188 97473.5986126566 571711.740988638
 -9976.34836938563 98064.5789555562 571562.604469083
 -14892.8899379491 98882.9539018271 571314.592196756
 -22211.8752587837 100013.950725246 570879.884264472
 -33093.2682945038 101569.012949342 570077.688742582
 -49241.3319593778 103684.982949089 568528.552966088
 -73132.4906278236 106504.580955123 565427.637324304
 -108281.097416061 110107.465921254 559063.100097631
 -159406.305635024 114314.157809646 545822.226597695
 -231986.718768371 118192.222328197 518278.651785125
 -0.000000000000000 0.000000000000000 -0.000000000000000
 0.000000000000000 0.000000000000000 -0.000000000000000
 -0.000000000000000 0.000000000000000 0.000000000000000
 0.000000000000000 0.000000000000000 -0.000000000000000
 0.000000000000000 0.000000000000000 0.000000000000000
 -0.000000000000000 0.000000000000000 0.000000000000000
 0.000000000000000 0.000000000000000 0.000000000000000
 0.000000000000000 0.000000000000000 0.000000000000000
 -0.000000000000000 -0.000000000000000 0.000000000000000
 -0.000000000000000 -0.000000000000000 0.000000000000000
 -0.000000000000000 -0.000000000000000 -0.000000000000000
 0.000000000000000 0.000000000000000 0.000000000000000
 -0.000000000000000 -0.000000000000000 0.000000000000000
 0.000000000000000 0.000000000000000 -0.000000000000000
 0.000000000000000 0.000000000000000 0.000000000000000
 0.000000000000000 0.000000000000000 -0.000000000000000
 -0.000000000000000 -0.000000000000000 0.000000000000000
 0.000000000000000 -0.000000000000000 -0.000000000000000
 0.000000000000000 -0.000000000000000 -0.000000000000000
 0.000000000000000 0.000000000000000 -0.000000000000000
 0.000000000000000 -0.000000000000000 0.000000000000000
 0.000000000000000 -0.000000000000000 0.000000000000000
 -0.000000000000000 0.000000000000000 -0.000000000000000
 0.000000000000000 0.000000000000000 0.000000000000000
 -0.000000000000000 0.000000000000000 -0.000000000000000
 115632.144297929 -568336.039330666 -4832.55656922375
 133974.259758411 -563771.283569190 24755.5558397310
 160566.348554374 -553392.788398904 66142.7959796159
 190618.804252735 -534476.436868901 119997.541213064
 219206.009919567 -504106.192480086 185001.815986689
 241292.207980637 -460235.555583311 257606.878294720
 252316.378760018 -403007.897167835 332146.172384675
 249632.440971947 -335595.626090658 401819.885226212
 233425.243350975 -263901.728354478 460726.093832396
 206937.047913720 -194556.788507632 505692.311832354
 174871.643959473 -133085.917334850 536756.971772191
 141957.119167219 -82098.6132790931 556334.426415797
 111521.775322472 -42236.2418812958 567608.133751331
 85351.9600947411 -11939.6450789114 573561.232810739
 64044.4797784409 10178.5195567084 576363.342302009
 47215.7652956088 26444.3112495619 577469.799998308