# OOMMF OVF 2.0
#
# Segment count: 1
#
# Begin: Segment
# Begin: Header
#
# Title: Oxs_TimeDriver::Magnetization
# Desc: Oxs vector field output
# Desc:  MIF source file: C:/Users/Victor H. González/Documents/GitHub/Intro-to-magnetism-in-python/domain_wall_conversion_thin_film/drive-46/domain_wall_conversion_thin_film.mif
# Desc:  Iteration: 301, State id: 2137
# Desc:  Stage: 24, Stage iteration: 11
# Desc:  Stage simulation time: 2e-12 s
# Desc:  Total simulation time: 5e-11 s
# meshunit: m
# meshtype: rectangular
# xbase: 1.0000000000000001e-09
# ybase: 1.0000000000000001e-09
# zbase: 1.0000000000000001e-09
# xnodes: 125
# ynodes: 25
# znodes: 1
# xstepsize: 2.0000000000000001e-09
# ystepsize: 2.0000000000000001e-09
# zstepsize: 2.0000000000000001e-09
# xmin: 0
# ymin: 0
# zmin: 0
# xmax: 2.5000000000000004e-07
# ymax: 5.0000000000000004e-08
# zmax: 2.0000000000000001e-09
# valuedim: 3
# valuelabels: Magnetization_x Magnetization_y Magnetization_z
# valueunits: A/m A/m A/m
#
# End: Header
#
# Begin: Data Text
 0.000000000000000 -0.000000000000000 -0.000000000000000
 -0.000000000000000 0.000000000000000 0.000000000000000
 0.000000000000000 0.000000000000000 -0.000000000000000
 0.000000000000000 0.000000000000000 0.000000000000000
 0.000000000000000 0.000000000000000 0.000000000000000
 0.000000000000000 -0.000000000000000 0.000000000000000
 -0.000000000000000 -0.000000000000000 0.000000000000000
 -0.000000000000000 -0.000000000000000 -0.000000000000000
 -0.000000000000000 0.000000000000000 -0.000000000000000
 -0.000000000000000 -0.000000000000000 -0.000000000000000
 0.000000000000000 -0.000000000000000 -0.000000000000000
 0.000000000000000 0.000000000000000 0.000000000000000
 0.000000000000000 0.000000000000000 -0.000000000000000
 0.000000000000000 0.000000000000000 0.000000000000000
 0.000000000000000 0.000000000000000 -0.000000000000000
 -0.000000000000000 0.000000000000000 -0.000000000000000
 0.000000000000000 -0.000000000000000 -0.000000000000000
 -0.000000000000000 -0.000000000000000 0.000000000000000
 0.000000000000000 -0.000000000000000 -0.000000000000000
 -0.000000000000000 -0.000000000000000 -0.000000000000000
 0.000000000000000 -0.000000000000000 0.000000000000000
 0.000000000000000 -0.000000000000000 0.000000000000000
 0.000000000000000 0.000000000000000 -0.000000000000000
 -0.000000000000000 -0.000000000000000 0.000000000000000
 0.000000000000000 -0.000000000000000 0.000000000000000
 310171.481866163 56833.5804414542 486789.067226405
 240146.737029702 68201.9683483140 523524.628081051
 188218.628774118 84090.4092852576 542127.799368958
 150249.927276088 103066.854799907 550637.977981164
 121827.463251031 123862.014966329 553368.114771983
 99616.4489695874 145179.433887705 552629.618343729
 81491.5368315212 165786.549434881 549794.461095519
 66253.9652899962 184777.861646082 545772.437861105
 53308.4420691987 201542.710793103 541238.159898507
 42329.4119312899 215881.631171841 536659.428509494
 33160.9621866263 227772.089326527 532372.262529412
 25599.7821365552 237448.753328303 528547.765767103
 19521.3173682134 245140.274882447 525285.792496587
 14673.3678211928 251196.393860153 522575.414642173
 10929.3583218025 255868.967772751 520395.638392157
 8021.30692146480 259464.412916267 518665.477032440
 5861.17751583690 262177.838582914 517328.162343903
 4208.13195654908 264229.652965533 516299.314467055
 3029.88822031212 265752.739838799 515525.267126204
 2127.42579101867 266886.776285881 514943.611187899
 1516.48911856375 267719.928987572 514513.109535260
 1037.16424177398 268329.134098429 514196.849547256
 736.140347118064 268776.732655532 513963.545478088
 485.226705236812 269094.621445078 513797.478841980
 345.524579177903 269333.094418726 513672.624210789
 214.316789177593 269493.107576331 513588.764516092
 154.632322357219 269620.947689882 513521.684698568
 85.2433791722795 269697.200703001 513481.657575547
 62.9590449202554 269767.675993048 513444.638715285
 25.6385420263960 269800.513250562 513427.387653210
 19.3100922818156 269841.600168901 513405.795103062
 -0.860622687641440 269852.686985372 513399.968178841
 -1.47792704564598 269878.646459212 513386.322551701
 -11.9074414323688 269879.505682912 513385.870735221
 -11.2875578668675 269897.374937040 513376.476744588
 -15.7168242819338 269894.064157662 513378.217190251
 -15.4500273304000 269907.197761576 513371.312363469
 -15.8945086858232 269902.816021445 513373.616044942
 -16.2193352504829 269912.767714933 513368.383873995
 -13.9191775860893 269908.785643093 513370.477568516
 -14.5447536337123 269916.277576277 513366.538535398
 -10.4121700555045 269913.249157579 513368.130897104
 -10.9597028092199 269918.648317306 513365.292136548
 -5.77477209087882 269916.605797581 513366.366137640
 -5.99982614614453 269920.141606906 513364.507069694
 -0.480619090904950 269918.831643069 513365.195863734
 -0.357993043645077 269920.686798018 513364.220450119
 4.83196861391944 269919.729038493 513364.724004716
 5.11416741879056 269920.078869701 513364.540065653
 9.38998296123839 269919.086569607 513365.061741893
 9.49631432838784 269918.126705614 513365.566419829
 12.3931834452793 269916.803828941 513366.261899999
 11.9440232285333 269914.779321363 513367.326347558
 13.1696243327174 269912.990930674 513368.266601491
 11.8610131568675 269910.219305382 513369.723857803
 11.3510899312583 269908.021130087 513370.879580049
 9.06774388519994 269904.890473447 513372.525576012
 7.02899271555530 269902.503105107 513373.780756469
 3.92117982063056 269899.429114975 513375.396905651
 0.836547704599245 269897.155120246 513376.592432201
 -2.66981003398784 269894.498599715 513377.989028046
 -6.09860500987027 269892.603757226 513378.985156144
 -9.37825017518964 269890.574860424 513380.051729280
 -12.3610537807533 269889.176917731 513380.786580365
 -14.7464385093044 269887.770635169 513381.525811089
 -16.5900309487963 269886.786381928 513382.043181495
 -17.5724019065592 269885.791945192 513382.565926549
 -17.8763423056198 269884.977061575 513382.994300463
 -17.2955254576016 269884.078160371 513383.466870907
 -16.1087122167982 269883.157613527 513383.950837053
 -14.2898154633830 269882.100573290 513384.506569832
 -12.2122629985136 269880.946893730 513385.113101855
 -10.0667526119221 269879.720983727 513385.757594040
 -8.36441072430761 269878.515897032 513386.391120034
 -7.58429951370750 269877.484291910 513386.933428138
 -8.52487640690161 269876.811224759 513387.287231075
 -12.1771729857739 269876.760320917 513387.313916504
 -20.0246237332566 269877.618775667 513386.862398124
 -34.1623658211565 269879.745243808 513385.743802913
 -57.6998093494008 269883.531792665 513383.751143187
 -95.2321768430202 269889.434692627 513380.642381583
 -153.610167757743 269897.973010475 513376.139461850
 -243.062861375153 269909.743795229 513369.916458726
 -378.856803050702 269925.466834614 513361.567339861
 -583.785998653747 269946.005026513 513350.575692804
 -891.832516256568 269972.483057376 513336.208567638
 -1353.63862601168 270006.386615724 513317.366596134
 -2044.58528169016 270049.876808338 513292.201096829
 -3076.79371590444 270106.212442876 513257.408461089
 -4616.84217024244 270180.670232578 513206.673963862
 -6911.90321736423 270281.986667962 513127.540945459
 -10328.0732476680 270424.946401256 512994.814074049
 -15406.1694017627 270634.330832732 512756.968669450
 -22941.8270152715 270950.835441890 512307.834555108
 -34097.5145240620 271438.376195341 511427.968957230
 -50550.9080648872 272190.522902479 509663.540912915
 -74667.0645692932 273328.200402965 506079.563243846
 -109622.647583871 274972.132192426 498771.692915961
 -159233.005862002 277169.265930035 483964.924212445
 -226769.552577741 279824.271068075 454614.064174121
 -0.000000000000000 -0.000000000000000 -0.000000000000000
 -0.000000000000000 -0.000000000000000 -0.000000000000000
 0.000000000000000 0.000000000000000 -0.000000000000000
 0.000000000000000 -0.000000000000000 0.000000000000000
 -0.000000000000000 -0.000000000000000 -0.000000000000000
 -0.000000000000000 -0.000000000000000 -0.000000000000000
 0.000000000000000 0.000000000000000 0.000000000000000
 0.000000000000000 0.000000000000000 -0.000000000000000
 0.000000000000000 0.000000000000000 -0.000000000000000
 0.000000000000000 0.000000000000000 -0.000000000000000
 -0.000000000000000 0.000000000000000 0.000000000000000
 -0.000000000000000 -0.000000000000000 0.000000000000000
 0.000000000000000 -0.000000000000000 -0.000000000000000
 -0.000000000000000 -0.000000000000000 -0.000000000000000
 -0.000000000000000 0.000000000000000 0.000000000000000
 -0.000000000000000 0.000000000000000 0.000000000000000
 -0.000000000000000 -0.000000000000000 -0.000000000000000
 0.000000000000000 0.000000000000000 -0.000000000000000
 0.000000000000000 -0.000000000000000 0.000000000000000
 -0.000000000000000 -0.000000000000000 -0.000000000000000
 -0.000000000000000 0.000000000000000 0.000000000000000
 0.000000000000000 -0.000000000000000 -0.000000000000000
 0.000000000000000 0.000000000000000 -0.000000000000000
 0.000000000000000 -0.000000000000000 0.000000000000000
 -0.000000000000000 0.000000000000000 0.000000000000000
 314805.138223133 -49212.3274888699 484639.940338642
 247326.360008695 -37092.0221980171 523310.475276495
 197751.589170797 -19254.9911694005 544906.922598245
 161271.361081582 2887.99300513659 557120.460574997
 133316.995896493 27610.5015727430 563794.500512408
 110656.396557389 52997.7091234152 566874.240664191
 91418.4622977496 77455.5262440082 567488.595661075
 74723.4041650383 99688.0841441707 566461.559816421
 60191.6322416759 119114.976295636 564436.524181571
 47764.6211121979 135392.549002866 561949.640665882
 37271.7361572474 148766.207196630 559356.266864110
 28708.5662875076 159394.201356502 556928.457520029
 21742.4244333640 167809.696654540 554767.674516523
 16336.7077513054 174264.595975509 552960.181721379
 12048.1866419949 179263.791479739 551470.157182552
 8886.39685188034 183001.236931355 550301.353108081
 6392.06560400790 185854.092878679 549379.101948333
 4660.52992170431 187947.022357554 548684.058678378
 3263.47098843018 189523.977154943 548151.449729434
 2373.07789807147 190669.426666565 547758.649622197
 1605.18472831925 191515.130970760 547466.325897073
 1179.45099872520 192134.867955256 547250.218283335
 757.038135256857 192572.087958666 547097.265422248
 574.155766784670 192909.273616664 546978.685597388
 337.087613935009 193122.584231102 546903.605612398
 273.574927276205 193312.105775518 546836.680296224
 135.979892691015 193404.665588870 546804.002214620
 126.028940296954 193518.715198749 546763.651850168
 43.4810234258774 193547.506779300 546753.473449340
 53.4600930052070 193623.245243834 546726.655691182
 3.36382331845859 193619.709833964 546727.910347091
 17.0600114012270 193675.357562958 546708.199665796
 -12.2516688982912 193656.965919904 546714.714819890
 -1.78651361599934 193700.888260277 546699.154822821
 -16.7674863487002 193677.417427723 546707.469948399
 -11.6388231316039 193713.133301422 546694.816008972
 -16.3574065738910 193689.997600650 546703.013126776
 -16.2484026195746 193718.867677247 546692.783967225
 -13.6903104930412 193698.882138814 546699.865438752
 -17.2297688901541 193721.489130251 546691.855026480
 -9.83716384306494 193705.835410337 546697.401888113
 -15.3970051455258 193722.631072693 546691.450429953
 -5.24990163006097 193711.434280762 546695.418127249
 -11.4034016088576 193722.982014422 546691.326169898
 -0.252688637434261 193715.701709886 546693.906048880
 -6.00529779967223 193722.709751004 546691.422733762
 4.73947101022503 193718.438208484 546692.936368857
 -0.116238277853660 193721.703918115 546691.779187367
 9.16616156051435 193719.408962853 546692.592328691
 5.25696686810326 193719.747913679 546692.472273603
 12.3715924828673 193718.470093664 546692.924951031
 9.14297642078967 193716.667736883 546693.563669194
 13.7229132944913 193715.667079109 546693.918147785
 10.7662857573780 193712.460137870 546695.054551824
 12.7681675801386 193711.300085984 546695.465552780
 9.71172843756107 193707.371927349 546696.857469185
 9.39998299308599 193705.927845268 546697.369144250
 6.05852699319577 193701.892913261 546698.798832697
 3.97794112812074 193700.282644711 546699.369386444
 0.437784693414414 193696.643342232 546700.658823236
 -2.64599522262529 193695.097556617 546701.206488088
 -6.03334692095064 193692.179273856 546702.240393931
 -9.24298566588401 193690.892771616 546702.696144716
 -11.9637562017263 193688.787290798 546703.442036620
 -14.4685394476741 193687.806603537 546703.789417790
 -16.0216907450439 193686.365584799 546704.299900647
 -17.2186271351140 193685.561583991 546704.584704951
 -17.3128670259865 193684.470204242 546704.971352892
 -16.9877446145646 193683.614652290 546705.274463893
 -15.7073230215025 193682.543310539 546705.654049819
 -14.1449434208411 193681.466396288 546706.035611922
 -12.0661693651529 193680.261897157 546706.462377989
 -10.1332370723856 193679.034927858 546706.897090874
 -8.45553266888690 193677.894162624 546707.301251076
 -7.78365124231789 193676.978492536 546707.625647765
 -8.67549270293986 193676.563615629 546707.772608710
 -12.2420700674514 193676.901839391 546707.652721294
 -19.8266844420395 193678.406164086 546707.119573764
 -33.5323778259405 193681.494709741 546706.024735945
 -56.3623956206962 193686.736519013 546704.165815384
 -92.8183231542947 193694.789349200 546701.307812345
 -149.599906123497 193706.478595158 546697.153614442
 -236.702185775048 193722.861758080 546691.317659550
 -369.077949670439 193745.266034263 546683.304730243
 -569.020800772572 193775.503359212 546672.416089574
 -869.816657213316 193815.946922701 546657.682775463
 -1321.04326769868 193869.978843314 546637.618672532
 -1996.54909146308 193942.309352548 546609.910662737
 -3006.17429349558 194039.945399248 546570.638166352
 -4513.17836021997 194173.295534173 546512.911578937
 -6759.89326014094 194358.494737172 546423.900801029
 -10105.4781129920 194620.648520431 546278.942008196
 -15081.0462740910 194999.455433910 546029.096682363
 -22469.3380426761 195557.138203327 545575.416001902
 -33417.6391179509 196389.755390062 544714.902837818
 -49591.6648952675 197639.460229873 543027.909534086
 -73368.0550957360 199500.455769880 539644.972772914
 -108024.382356751 202192.455520670 532774.758924412
 -157770.788582191 205829.577899361 518789.517176209
 -227185.067956550 209984.321120950 490605.268806758
 -0.000000000000000 0.000000000000000 -0.000000000000000
 -0.000000000000000 -0.000000000000000 0.000000000000000
 -0.000000000000000 -0.000000000000000 -0.000000000000000
 0.000000000000000 0.000000000000000 0.000000000000000
 0.000000000000000 -0.000000000000000 -0.000000000000000
 -0.000000000000000 0.000000000000000 0.000000000000000
 0.000000000000000 0.000000000000000 -0.000000000000000
 -0.000000000000000 0.000000000000000 0.000000000000000
 0.000000000000000 0.000000000000000 0.000000000000000
 0.000000000000000 -0.000000000000000 -0.000000000000000
 -0.000000000000000 0.000000000000000 0.000000000000000
 -0.000000000000000 0.000000000000000 0.000000000000000
 -0.000000000000000 0.000000000000000 -0.000000000000000
 -0.000000000000000 -0.000000000000000 0.000000000000000
 -0.000000000000000 0.000000000000000 0.000000000000000
 0.000000000000000 0.000000000000000 -0.000000000000000
 -0.000000000000000 0.000000000000000 -0.000000000000000
 -0.000000000000000 0.000000000000000 0.000000000000000
 0.000000000000000 -0.000000000000000 0.000000000000000
 0.000000000000000 0.000000000000000 -0.000000000000000
 -0.000000000000000 -0.000000000000000 0.000000000000000
 -0.000000000000000 0.000000000000000 -0.000000000000000
 -0.000000000000000 -0.000000000000000 -0.000000000000000
 -0.000000000000000 0.000000000000000 -0.000000000000000
 0.000000000000000 -0.000000000000000 0.000000000000000
 325585.982398469 -171252.467069322 448404.237924102
 265450.780463344 -154739.995538740 491926.231189263
 221225.188750905 -130351.523889638 520065.280596365
 187713.105300672 -100030.707799639 539590.258988691
 160311.975923502 -66410.4865221626 553434.474581582
 136178.002047409 -32210.4151446135 562865.917350294
 114063.561633960 35.7202389580986 568673.458701424
 93749.1783188693 28787.7307420883 571648.806631535
 75539.9451405730 53064.8514472211 572606.180746457
 59632.3799865340 72970.4032522917 572293.018921549
 46298.7924514123 88645.2173346945 571312.915363573
 35280.5779619632 100915.841249571 570062.517451868
 26611.8708372373 110175.216202645 568817.396064188
 19697.4242773128 117264.053587227 567680.502759370
 14560.1856039054 122464.662560243 566736.629678359
 10504.3536259612 126408.787624329 565959.783877130
 7674.48060226913 129243.611569572 565364.653313186
 5391.83917603122 131381.965839281 564897.961690876
 3932.69587423719 132900.491014314 564554.685917419
 2671.41499333113 134031.737175214 564294.565782560
 1973.56507387844 134841.291641360 564104.539167510
 1273.75036084426 135419.792110394 563967.957835191
 975.852731268892 135858.091558874 563863.127602283
 577.418612200818 136135.851588287 563796.680107358
 477.549725128423 136385.048600729 563736.543488567
 241.180603522375 136500.140650252 563708.837463436
 231.126004718504 136655.457370958 563671.209617365
 84.9624941187063 136683.504626189 563664.450133656
 108.817234904021 136792.735394415 563637.947358162
 16.4913286706355 136775.674190293 563642.098035470
 46.7377869459648 136861.371112567 563621.293878050
 -10.4209645525630 136823.012533665 563630.608761285
 13.9180339848249 136894.766022120 563613.185475675
 -18.3890540738992 136848.985351777 563624.302944818
 -4.14794760600060 136910.149302626 563609.448998797
 -18.1826425682254 136865.106703207 563620.388414500
 -13.9999209036936 136916.422607673 563607.924912629
 -14.7103401289520 136876.735056308 563617.564651717
 -18.5170700598650 136918.210680346 563607.490405522
 -10.0548425611860 136886.121662048 563615.285097223
 -19.0642866278942 136917.912992234 563607.562705118
 -5.02447141255965 136894.004046207 563613.370699234
 -16.5295373305271 136916.725938214 563607.851156400
 0.0477907032752135 136900.431674922 563611.809499426
 -11.7812458691424 136915.153869073 563608.233174614
 4.90516027517392 136905.189545062 563610.653777561
 -5.81404386106153 136913.284287335 563608.687434688
 9.19767329402880 136908.018567224 563609.966525965
 0.274068235980649 136910.970689044 563609.249484879
 12.4557403326683 136908.742301803 563609.790658567
 5.39191551532945 136907.989853359 563609.973550184
 14.1571631242749 136907.354510776 563610.127730540
 8.60464822298992 136904.189493248 563610.896652253
 13.8536220145431 136904.081096644 563610.922877795
 9.29111397342797 136899.606625866 563612.009825339
 11.3242168415261 136899.400454557 563612.059866487
 7.28038414130323 136894.519076151 563613.245580607
 6.71533568237484 136893.994995334 563613.372879957
 2.93193435064931 136889.398878891 563614.489226439
 0.616243557444206 136888.620456943 563614.678294503
 -2.88120219394829 136884.768293937 563615.613872446
 -5.97834215635122 136883.915696561 563615.820916904
 -8.91645884934291 136881.005400457 563616.527686207
 -11.8427457362244 136880.217072063 563616.719086698
 -13.8298868619347 136878.183677017 563617.212868819
 -15.8101272264153 136877.463182810 563617.387793065
 -16.5188990306357 136876.034306353 563617.734781023
 -17.1083540339929 136875.258372795 563617.923200359
 -16.4565330665497 136874.080945825 563618.209157953
 -15.6558034414986 136873.107794004 563618.445508756
 -13.9468245879126 136871.928556440 563618.731926758
 -12.2763033765689 136870.768660869 563619.013639068
 -10.3165865002331 136869.626680686 563619.290998682
 -8.92095197584978 136868.622601794 563619.534852638
 -8.23437024596226 136868.015156806 563619.682373878
 -9.21354931235031 136867.998798383 563619.686331161
 -12.6409391841717 136869.022748364 563619.437610268
 -20.0195665859501 136871.479167771 563618.840875323
 -33.2888258994011 136876.024479495 563617.736426510
 -55.4542258345578 136883.381115493 563615.948052589
 -90.9170437783072 136894.551376897 563613.230449224
 -146.260441610273 136910.824040812 563609.266130667
 -231.346328344109 136933.887850738 563603.634513616
 -360.875424554111 136966.080034599 563595.744030137
 -556.861290779935 137010.484839367 563584.791268877
 -852.109064198066 137071.479907599 563569.590473159
 -1295.59131624228 137154.998110911 563548.425546853
 -1960.23088654088 137269.547342032 563518.614481710
 -2954.62227160253 137427.009806281 563475.897606043
 -4440.25299533499 137644.618801769 563413.030616308
 -6657.08279240288 137947.110383926 563317.209026513
 -9961.19393961929 138370.758470909 563164.547726047
 -14880.1190809554 138968.396546453 562908.844145697
 -22193.4883240404 139817.078981132 562457.672630745
 -33048.9969751823 141026.577143262 561621.997733520
 -49124.8403658824 142746.754300877 560009.030458967
 -72844.0872377478 145161.544873289 556796.071146788
 -107617.654660761 148438.423198739 550258.552794583
 -157988.414346508 152546.539389241 536813.947520594
 -229227.096724882 156732.757489508 509205.047949072
 0.000000000000000 -0.000000000000000 0.000000000000000
 0.000000000000000 -0.000000000000000 0.000000000000000
 0.000000000000000 0.000000000000000 0.000000000000000
 -0.000000000000000 -0.000000000000000 -0.000000000000000
 0.000000000000000 0.000000000000000 -0.000000000000000
 -0.000000000000000 0.000000000000000 0.000000000000000
 0.000000000000000 0.000000000000000 -0.000000000000000
 -0.000000000000000 0.000000000000000 0.000000000000000
 -0.000000000000000 0.000000000000000 0.000000000000000
 -0.000000000000000 0.000000000000000 0.000000000000000
 -0.000000000000000 -0.000000000000000 -0.000000000000000
 -0.000000000000000 0.000000000000000 0.000000000000000
 0.000000000000000 0.000000000000000 -0.000000000000000
 -0.000000000000000 0.000000000000000 0.000000000000000
 -0.000000000000000 0.000000000000000 0.000000000000000
 0.000000000000000 0.000000000000000 0.000000000000000
 0.000000000000000 -0.000000000000000 0.000000000000000
 0.000000000000000 0.000000000000000 -0.000000000000000
 0.000000000000000 0.000000000000000 -0.000000000000000
 -0.000000000000000 0.000000000000000 0.000000000000000
 0.000000000000000 0.000000000000000 -0.000000000000000
 0.000000000000000 -0.000000000000000 0.000000000000000
 0.000000000000000 -0.000000000000000 0.000000000000000
 -0.000000000000000 0.000000000000000 0.000000000000000
 0.000000000000000 0.000000000000000 -0.000000000000000
 335397.241533207 -308539.092133200 358764.991320971
 291241.138524877 -286874.986867958 411438.137683227
 258313.932526650 -253466.330755723 453242.464290194
 231111.226530518 -211306.096649254 488198.048429544
 205317.476308197 -164194.565280230 516996.014157623
 178850.856841062 -116499.865094454 539295.978512906
 151718.374128108 -71915.4810209121 555166.370146333
 125113.431110240 -33179.2072487876 565372.239822725
 100387.330404632 -1163.54380998504 571245.157581255
 78703.3780261742 23975.1080419041 574134.977580750
 60361.2898954776 43344.2781210105 575219.773857195
 45622.0154590639 57690.2739116953 575317.707011914
 33842.8267558302 68409.0695647550 574956.400328285
 24971.6553597207 76085.3142617901 574445.333676130
 18046.1376749384 81776.2874868857 573922.447478646
 13133.3467377618 85761.3175203509 573474.072317693
 9262.04827216709 88723.5993967391 573098.889696962
 6715.90662229177 90766.7756613132 572814.358264778
 4600.75319840836 92286.1340020169 572592.440170991
 3368.17214860528 93335.4351348043 572430.914577972
 2210.67045371535 94096.3521641966 572311.968637330
 1668.59447850063 94647.8573579882 572222.857713678
 1019.07443763931 95008.4405309479 572164.624662490
 821.642334729270 95316.5575641662 572113.693908816
 440.843198302997 95463.9991681086 572089.530161238
 403.686509020747 95656.4580819560 572057.408888669
 169.175903485390 95689.8380449159 572051.943685582
 197.000243348805 95828.5673155800 572028.711584609
 47.5484412322836 95801.7841506415 572033.229710216
 92.8194626224743 95914.8795278898 572014.271910848
 -2.32146889891490 95858.5105871297 572023.728478660
 38.2179344519598 95957.0821527290 572007.200063184
 -18.9601521719134 95889.3151169384 572018.565159311
 8.14510543008486 95976.4359542465 572003.954247851
 -21.0041428155021 95908.4369799439 572015.359299809
 -8.89817395775508 95983.9101122635 572002.700098857
 -17.2307040759653 95922.4455414197 572013.010467818
 -18.0618366375896 95985.2919225395 572002.468008937
 -11.5747376849204 95934.0658083787 572011.061854139
 -21.7145694229782 95983.7203309184 572002.731601794
 -5.65168846322952 95944.1646622758 572009.368135974
 -21.1737693936479 95980.9160696829 572003.202178184
 -0.0478760400618766 95952.7794260286 572007.923127310
 -17.4983364296536 95977.7717135788 572003.729909784
 5.01387940974377 95959.6432272792 572006.771678932
 -11.7937367481713 95974.6480116295 572004.254179942
 9.34664255877651 95964.4479038926 572005.965573036
 -5.26054368233695 95971.5556244522 572004.773129866
 12.6717469370872 95966.9772072942 572005.541166448
 0.887073974529879 95968.3084546866 572005.317957412
 14.6187562876378 95967.1826258925 572005.506656309
 5.55997170235629 95964.6770610642 572005.927177029
 14.8083812365625 95965.2325391120 572005.833820273
 7.94619036762024 95960.5313457311 572006.622654583
 12.9829001422839 95961.5334839879 572006.454441596
 7.64681289364477 95955.9382613838 572007.393181158
 9.14639605348066 95956.7033162363 572007.264818397
 4.76716640530380 95951.1773340584 572008.191851728
 3.66962900266849 95951.4772653260 572008.141547946
 -0.0686505666244555 95946.6577795882 572008.949983234
 -2.68833092804190 95946.5514568153 572008.967811098
 -5.80894777290365 95942.7605021796 572009.603654937
 -8.87621941609783 95942.4050288446 572009.663238738
 -11.1805096626733 95939.6694457289 572010.122027259
 -13.7652289619042 95939.1716023115 572010.205470830
 -14.9826202646921 95937.2770368187 572010.523198902
 -16.4388311641788 95936.6327189140 572010.631223163
 -16.4058969235496 95935.2318732827 572010.866169749
 -16.4839754036513 95934.3716224223 572011.010444458
 -15.3038896483142 95933.1461617007 572011.216003068
 -14.2229454479363 95932.0687499647 572011.396724802
 -12.3916607315871 95930.9208774696 572011.589275993
 -10.9060595937744 95929.8733927526 572011.764976831
 -9.46696036218864 95929.1170985984 572011.891837102
 -9.05131369450316 95928.7878640942 572011.947057926
 -9.96650316261995 95929.3377277895 572011.854828007
 -13.4000596702864 95931.0780218492 572011.562898867
 -20.5418034523020 95934.7016655912 572010.954960103
 -33.4647268262623 95940.8835401561 572009.917523854
 -55.0499678132288 95950.6914487081 572008.270726933
 -89.6747724719155 95965.4408877050 572005.792028073
 -143.874566089094 95986.9413624858 572002.173411941
 -227.396719245467 96017.6785068609 571996.987496337
 -354.893421058676 96060.9691678234 571989.653973914
 -548.204554550308 96121.5160234732 571979.329721902
 -840.041289575563 96205.6380233522 571964.832435659
 -1279.16446127262 96322.3016832600 571944.383604490
 -1938.36370789888 96483.7108497773 571915.322654317
 -2926.06179579974 96707.0771610293 571873.394545802
 -4403.73986798547 97016.0524576110 571811.588410655
 -6611.61038939542 97443.7624097093 571717.587428880
 -9906.70122186801 98035.7985652121 571568.753056517
 -14818.9706563037 98855.1028437571 571321.334058547
 -22133.6299087573 99986.5904641957 570887.715890268
 -33010.6568700792 101541.830040543 570087.320754482
 -49154.2856111155 103657.425953653 568541.110431536
 -73041.1458006936 106476.183071024 565444.792582571
 -108185.993324554 110077.665424287 559087.379953365
 -159309.240665998 114282.618076414 545857.169087321
 -231892.136880443 118158.990692184 518328.553884143
 -0.000000000000000 0.000000000000000 -0.000000000000000
 0.000000000000000 0.000000000000000 -0.000000000000000
 -0.000000000000000 0.000000000000000 0.000000000000000
 0.000000000000000 0.000000000000000 -0.000000000000000
 0.000000000000000 0.000000000000000 0.000000000000000
 -0.000000000000000 0.000000000000000 0.000000000000000
 0.000000000000000 0.000000000000000 0.000000000000000
 0.000000000000000 0.000000000000000 0.000000000000000
 -0.000000000000000 -0.000000000000000 0.000000000000000
 -0.000000000000000 -0.000000000000000 0.000000000000000
 -0.000000000000000 -0.000000000000000 -0.000000000000000
 0.000000000000000 0.000000000000000 0.000000000000000
 -0.000000000000000 -0.000000000000000 0.000000000000000
 0.000000000000000 0.000000000000000 -0.000000000000000
 0.000000000000000 0.000000000000000 0.000000000000000
 0.000000000000000 0.000000000000000 -0.000000000000000
 -0.000000000000000 -0.000000000000000 0.000000000000000
 0.000000000000000 -0.000000000000000 -0.000000000000000
 0.000000000000000 -0.000000000000000 -0.000000000000000
 0.000000000000000 0.000000000000000 -0.000000000000000
 0.000000000000000 -0.000000000000000 0.000000000000000
 0.000000000000000 -0.000000000000000 0.000000000000000
 -0.000000000000000 0.000000000000000 -0.000000000000000
 0.000000000000000 0.000000000000000 0.000000000000000
 -0.000000000000000 0.000000000000000 -0.000000000000000
 327886.126320704 -438414.558357243 191529.013955660
 313066.343168704 -415536.842510973 256356.387263876
 302148.182331287 -376897.917508885 321020.927186009
 288803.630731743 -325031.788280633 383857.785492565
 268658.842181523 -264391.466430714 440816.944996787
 240656.657936687 -200968.594229164 487950.814246987
 206790.754216039 -141089.059071755 523193.521921868
 170752.251825719 -89078.2461807647 547091.157444356
 136233.107463120 -47154.9840181536 561797.960047196
 105565.991859595 -14836.6607599687 570119.018153397
 80070.7376374165 8902.06885213272 574377.428303334
 59509.0805139585 26212.3660946974 576343.284163268
 43779.2123156652 38335.4640093233 577073.455262162
 31632.8829035050 47040.5973977933 577223.130960352
 22877.9193140672 52974.4220158311 577122.440579074
 16160.6852390396 57259.1653507747 576940.395739402