# OOMMF OVF 2.0
#
# Segment count: 1
#
# Begin: Segment
# Begin: Header
#
# Title: Oxs_MinDriver::Magnetization
# Desc: Oxs vector field output
# Desc:  MIF source file: C:/Users/Victor H. González/Documents/GitHub/Intro-to-magnetism-in-python/domain_wall_conversion_thin_film/drive-45/domain_wall_conversion_thin_film.mif
# Desc:  Iteration: 1176, State id: 2392
# Desc:  Stage: 0, Stage iteration: 1176
# Desc:  Stage simulation time: -1 s
# Desc:  Total simulation time: -2 s
# meshunit: m
# meshtype: rectangular
# xbase: 1.0000000000000001e-09
# ybase: 1.0000000000000001e-09
# zbase: 1.0000000000000001e-09
# xnodes: 125
# ynodes: 25
# znodes: 1
# xstepsize: 2.0000000000000001e-09
# ystepsize: 2.0000000000000001e-09
# zstepsize: 2.0000000000000001e-09
# xmin: 0
# ymin: 0
# zmin: 0
# xmax: 2.5000000000000004e-07
# ymax: 5.0000000000000004e-08
# zmax: 2.0000000000000001e-09
# valuedim: 3
# valuelabels: Magnetization_x Magnetization_y Magnetization_z
# valueunits: A/m A/m A/m
#
# End: Header
#
# Begin: Data Text
 0.000000000000000 -0.000000000000000 -0.000000000000000
 -0.000000000000000 0.000000000000000 0.000000000000000
 0.000000000000000 0.000000000000000 -0.000000000000000
 0.000000000000000 0.000000000000000 0.000000000000000
 0.000000000000000 0.000000000000000 0.000000000000000
 0.000000000000000 -0.000000000000000 0.000000000000000
 -0.000000000000000 -0.000000000000000 0.000000000000000
 -0.000000000000000 -0.000000000000000 -0.000000000000000
 -0.000000000000000 0.000000000000000 -0.000000000000000
 -0.000000000000000 -0.000000000000000 -0.000000000000000
 0.000000000000000 -0.000000000000000 -0.000000000000000
 0.000000000000000 0.000000000000000 0.000000000000000
 0.000000000000000 0.000000000000000 -0.000000000000000
 0.000000000000000 0.000000000000000 0.000000000000000
 0.000000000000000 0.000000000000000 -0.000000000000000
 -0.000000000000000 0.000000000000000 -0.000000000000000
 0.000000000000000 -0.000000000000000 -0.000000000000000
 -0.000000000000000 -0.000000000000000 0.000000000000000
 0.000000000000000 -0.000000000000000 -0.000000000000000
 -0.000000000000000 -0.000000000000000 -0.000000000000000
 0.000000000000000 -0.000000000000000 0.000000000000000
 0.000000000000000 -0.000000000000000 0.000000000000000
 0.000000000000000 0.000000000000000 -0.000000000000000
 -0.000000000000000 -0.000000000000000 0.000000000000000
 0.000000000000000 -0.000000000000000 0.000000000000000
 262325.060265089 235026.964621760 460812.205413007
 191281.352860374 235901.641541898 494127.371803812
 136686.506426358 238915.199308838 510525.539518030
 96567.9110537595 242877.463006677 517769.424085812
 67735.6154476814 247093.145919587 520343.024974377
 47259.0596300736 251141.065206658 520667.597080658
 32821.4997629410 254789.048017493 520005.086670939
 22695.5456173795 257935.353441852 518993.512150158
 15625.8735625259 260562.267166191 517941.248603181
 10711.4354685162 262701.189681453 516984.864469119
 7309.98545189652 264408.273623305 516173.254781993
 4966.03792241915 265748.617397417 515512.376979171
 3357.99548764516 266786.787486554 514988.867732992
 2259.78202011438 267581.715237329 514582.276274524
 1513.18349530231 268184.435070718 514271.153246524
 1007.98626310246 268637.552077825 514035.844642499
 667.765595730691 268975.682502945 513859.549206964
 439.772966653965 269226.367387502 513728.498044510
 287.770429437443 269411.150152700 513631.725423556
 186.977364160728 269546.655160373 513560.673855894
 120.526373665441 269645.565832451 513508.767500897
 76.9894487279197 269717.462993528 513471.015958019
 48.6599326096932 269769.525737276 513443.668395761
 30.3674998426381 269807.096677325 513423.927822192
 18.6582510758054 269834.123348345 513409.724809240
 11.2387002116083 269853.507364267 513399.536849124
 6.59459466617256 269867.371999616 513392.249149257
 3.72976221830091 269877.263945361 513387.049302429
 1.99440617712945 269884.304594725 513383.348122477
 0.969982384688761 269889.303894409 513380.719975391
 0.384584106511446 269892.846100536 513378.857787896
 0.0665483841491780 269895.351780919 513377.540497293
 -0.0928250527834143 269897.119742219 513376.611032140
 -0.161843970148860 269898.364885852 513375.956421722
 -0.179533652562895 269899.241097001 513375.495768186
 -0.170599368729431 269899.855685565 513375.172657270
 -0.149955850409784 269900.286048201 513374.946399877
 -0.125903476689820 269900.587155122 513374.788096674
 -0.102581874701056 269900.797570594 513374.677473233
 -0.0822584833665449 269900.944640824 513374.600152738
 -0.0653387748737053 269901.046704067 513374.546494121
 -0.0513469595869832 269901.117247451 513374.509406705
 -0.0388168008976922 269901.167080352 513374.483207592
 -0.0288836612914879 269901.201783470 513374.464962797
 -0.0217781785124490 269901.226017392 513374.452222068
 -0.0155252008972984 269901.242211678 513374.443708092
 -0.0112667105721416 269901.252214846 513374.438449031
 -0.00840203113350456 269901.258847206 513374.434962137
 -0.00548120134471127 269901.263142376 513374.432703996
 -0.00311112021959046 269901.265468164 513374.431481238
 -0.000844425793657667 269901.266416948 513374.430982424
 0.000805474573644745 269901.265645167 513374.431388180
 0.00169228855925519 269901.263966398 513374.432270775
 0.00330745701981186 269901.261188212 513374.433731378
 0.00625776913126244 269901.255888169 513374.436517820
 0.0107707297974655 269901.248239056 513374.440539261
 0.0163775876304883 269901.236414363 513374.446755970
 0.0247639425566129 269901.218451888 513374.456199552
 0.0356774174453609 269901.190817328 513374.470728129
 0.0481710021471575 269901.149221408 513374.492596741
 0.0637624817960724 269901.087534801 513374.525027808
 0.0812915004856097 269900.997913628 513374.572145155
 0.101902871030931 269900.869526378 513374.639643306
 0.126147274879785 269900.684107178 513374.737125291
 0.150753673287112 269900.418773484 513374.876621242
 0.173535037589214 269900.039695872 513375.075916368
 0.187760859035876 269899.497771509 513375.360825441
 0.179605652902819 269898.725186286 513375.766999948
 0.127230011046146 269897.625212263 513376.345291410
 -0.00760633176042424 269896.061613135 513377.167320206
 -0.287709231232440 269893.841727056 513378.334367285
 -0.816163625171113 269890.696210078 513379.988019180
 -1.75941502578328 269886.248982560 513382.325958956
 -3.38087794868240 269879.975076870 513385.624108309
 -6.09489665956457 269871.145675224 513390.265485034
 -10.5472433403703 269858.748811944 513396.781815398
 -17.7406713057195 269841.386752968 513405.907329185
 -29.2202309822945 269817.138903923 513418.650518151
 -47.3526970697076 269783.377479889 513436.390406120
 -75.7466788639686 269736.525633648 513461.002415499
 -119.876833999873 269671.742046074 513495.021564358
 -188.018479775762 269582.520345119 513541.847733390
 -292.627970789766 269460.186389172 513605.999108250
 -452.379582959977 269293.284705378 513693.412616223
 -695.172109744882 269066.853122657 513811.780019112
 -1062.53782503294 268761.612989279 513970.880884094
 -1616.09024821870 268353.140683281 514182.827540680
 -2446.91900733135 267811.148088291 514462.050638337
 -3689.22133176153 267099.119658413 514824.678821505
 -5540.00478667052 266174.698185252 515286.656525233
 -8287.41773089048 264991.459113598 515859.327049730
 -12351.2069977578 263503.007653326 516540.039729109
 -18339.9343537414 261670.679354824 517293.052702127
 -27130.5381354826 259476.453620694 518011.490139849
 -39975.3841503311 256942.740949198 518442.278885072
 -58636.3504685123 254160.197851154 518038.967870175
 -85523.3870576724 251323.277958087 515676.604300201
 -123745.688198715 248772.482140414 509116.152544706
 -176790.849924137 247054.729657112 494073.836523604
 -247084.416864042 247103.632033928 462913.691716499
 -0.000000000000000 -0.000000000000000 -0.000000000000000
 -0.000000000000000 -0.000000000000000 -0.000000000000000
 0.000000000000000 0.000000000000000 -0.000000000000000
 0.000000000000000 -0.000000000000000 0.000000000000000
 -0.000000000000000 -0.000000000000000 -0.000000000000000
 -0.000000000000000 -0.000000000000000 -0.000000000000000
 0.000000000000000 0.000000000000000 0.000000000000000
 0.000000000000000 0.000000000000000 -0.000000000000000
 0.000000000000000 0.000000000000000 -0.000000000000000
 0.000000000000000 0.000000000000000 -0.000000000000000
 -0.000000000000000 0.000000000000000 0.000000000000000
 -0.000000000000000 -0.000000000000000 0.000000000000000
 0.000000000000000 -0.000000000000000 -0.000000000000000
 -0.000000000000000 -0.000000000000000 -0.000000000000000
 -0.000000000000000 0.000000000000000 0.000000000000000
 -0.000000000000000 0.000000000000000 0.000000000000000
 -0.000000000000000 -0.000000000000000 -0.000000000000000
 0.000000000000000 0.000000000000000 -0.000000000000000
 0.000000000000000 -0.000000000000000 0.000000000000000
 -0.000000000000000 -0.000000000000000 -0.000000000000000
 -0.000000000000000 0.000000000000000 0.000000000000000
 0.000000000000000 -0.000000000000000 -0.000000000000000
 0.000000000000000 0.000000000000000 -0.000000000000000
 0.000000000000000 -0.000000000000000 0.000000000000000
 -0.000000000000000 0.000000000000000 0.000000000000000
 264572.842440084 163119.527044402 489686.870295687
 191988.632834412 162668.965715829 522569.777594644
 137141.333481728 164529.178918596 539001.302350213
 97025.6242903525 167767.178563463 546662.786393882
 68194.6741430910 171564.538363291 549831.879391063
 47683.6948445594 175372.214094464 550791.114461350
 33190.0489285619 178877.422033430 550727.962372344
 23002.2001229628 181934.233198083 550246.157260665
 15874.1754598842 184501.910684196 549642.661651504
 10908.9270872973 186599.906468143 549055.070294305
 7465.14583236842 188277.951438235 548539.592554560
 5086.84140936330 189597.444413033 548112.153775596
 3451.37084987228 190620.625854934 547769.901544371
 2331.50989816046 191404.842302764 547502.283469803
 1567.97329365119 191999.984633420 547296.580804701
 1049.61755209499 192447.808617345 547140.511442331
 699.241107836650 192782.294306631 547023.306691538
 463.456757488191 193030.508152934 546936.018314806
 305.510264213257 193213.644065628 546871.460592303
 200.207508988551 193348.072503505 546823.996159763
 130.352092548948 193446.294130037 546789.277780469
 84.2582072324104 193517.761791554 546763.997325850
 54.0174406777551 193569.566250547 546745.663086312
 34.3022813147994 193606.988371818 546732.414328022
 21.5385079656634 193633.935029381 546722.871975492
 13.3406131076652 193653.281360632 546716.019922856
 8.12336420860160 193667.132775061 546711.113492947
 4.83856095247135 193677.024744250 546707.609296600
 2.79726216476397 193684.072552222 546705.112498284
 1.54929055398517 193689.082098344 546703.337719371
 0.801488328104413 193692.634913228 546702.078997079
 0.365755594581488 193695.150055967 546701.187893956
 0.121150279539651 193696.926862211 546700.558371875
 -0.00874212734022166 193698.179665338 546700.114500019
 -0.0702265484713124 193699.061555486 546699.802041778
 -0.0932976957241973 193699.680936841 546699.582590802
 -0.0950280989455385 193700.115174677 546699.428736951
 -0.0867025862839955 193700.419159628 546699.321032482
 -0.0749934940973469 193700.632025018 546699.245612341
 -0.0626064283943042 193700.780952283 546699.192846004
 -0.0510558682065705 193700.883850263 546699.156388250
 -0.0411149856389409 193700.955433536 546699.131025589
 -0.0319990966381934 193701.005994114 546699.113111469
 -0.0242278396279884 193701.040814000 546699.100774432
 -0.0179644536580821 193701.065539233 546699.092014030
 -0.0131193560991253 193701.081824242 546699.086244086
 -0.00968343315426453 193701.092182359 546699.082574099
 -0.00727869730835666 193701.099244604 546699.080071873
 -0.00489247767480718 193701.103205913 546699.078668340
 -0.00273155764950391 193701.105832337 546699.077737771
 -0.00111659640461149 193701.107063941 546699.077301401
 0.000363199318967788 193701.106353318 546699.077553182
 0.00132227383201527 193701.104911614 546699.078063993
 0.00268009368427971 193701.102010318 546699.079091952
 0.00494458132497488 193701.096654742 546699.080989487
 0.00876077309681901 193701.088817539 546699.083766289
 0.0133688090244196 193701.076197231 546699.088237793
 0.0200716515329717 193701.057713083 546699.094786915
 0.0291391751022644 193701.029695955 546699.104713668
 0.0391661490976722 193700.987320366 546699.119727766
 0.0507736341387669 193700.925320206 546699.141695040
 0.0635452241447556 193700.834436136 546699.173896157
 0.0773770004065639 193700.704613730 546699.219893479
 0.0911914323928038 193700.517673179 546699.286128246
 0.102521283152101 193700.249917321 546699.380996500
 0.106414042101525 193699.868161007 546699.516255865
 0.0934421553960498 193699.322298285 546699.709658946
 0.0481662772728623 193698.545502295 546699.984882287
 -0.0555032057988986 193697.440800382 546700.376282457
 -0.261093573040224 193695.871734291 546700.932204276
 -0.638360098254066 193693.647606364 546701.720206306
 -1.30023327627573 193690.500128730 546702.835330302
 -2.42499196897390 193686.055867135 546704.409856691
 -4.29152452804713 193679.794989619 546706.627904182
 -7.33534911948739 193670.996323043 546709.744864158
 -12.2284919525891 193658.661346481 546714.114264442
 -20.0057698329800 193641.413143866 546720.223437377
 -32.2511149934694 193617.364317079 546728.740048274
 -51.3761035280673 193583.938672507 546740.574723090
 -81.0381393734301 193537.638722574 546756.962306389
 -126.760214073328 193473.746143964 546779.565716267
 -196.853175273556 193385.939060003 546810.606903989
 -303.777529784822 193265.822013529 546853.023911039
 -466.149879444182 193102.356365172 546910.653279407
 -711.694489048375 192881.197743303 546988.424967168
 -1081.56709999214 192583.981000776 547092.533740409
 -1636.66788395474 192187.622628522 547230.517265470
 -2466.83375099611 191663.798402133 547411.091514696
 -3704.16994135505 190978.860459833 547643.455162671
 -5542.31383836698 190094.645450432 547935.496685870
 -8264.15839333006 188970.895234846 548289.799686435
 -12281.5063703581 187570.361240435 548695.292658327
 -18191.3400531202 185868.152706520 549110.284875941
 -26854.5648635745 183867.375039605 549428.449156060
 -39503.3732250411 181623.450263959 549410.962593629
 -57879.9100392559 179279.036235304 548551.677766451
 -84393.2992382397 177108.472065973 545811.652647817
 -122232.345033680 175560.434434053 539108.326488188
 -175236.567003226 175256.139291817 524382.905161344
 -247029.150900506 176804.322571729 494081.805094386
 -0.000000000000000 0.000000000000000 -0.000000000000000
 -0.000000000000000 -0.000000000000000 0.000000000000000
 -0.000000000000000 -0.000000000000000 -0.000000000000000
 0.000000000000000 0.000000000000000 0.000000000000000
 0.000000000000000 -0.000000000000000 -0.000000000000000
 -0.000000000000000 0.000000000000000 0.000000000000000
 0.000000000000000 0.000000000000000 -0.000000000000000
 -0.000000000000000 0.000000000000000 0.000000000000000
 0.000000000000000 0.000000000000000 0.000000000000000
 0.000000000000000 -0.000000000000000 -0.000000000000000
 -0.000000000000000 0.000000000000000 0.000000000000000
 -0.000000000000000 0.000000000000000 0.000000000000000
 -0.000000000000000 0.000000000000000 -0.000000000000000
 -0.000000000000000 -0.000000000000000 0.000000000000000
 -0.000000000000000 0.000000000000000 0.000000000000000
 0.000000000000000 0.000000000000000 -0.000000000000000
 -0.000000000000000 0.000000000000000 -0.000000000000000
 -0.000000000000000 0.000000000000000 0.000000000000000
 0.000000000000000 -0.000000000000000 0.000000000000000
 0.000000000000000 0.000000000000000 -0.000000000000000
 -0.000000000000000 -0.000000000000000 0.000000000000000
 -0.000000000000000 0.000000000000000 -0.000000000000000
 -0.000000000000000 -0.000000000000000 -0.000000000000000
 -0.000000000000000 0.000000000000000 -0.000000000000000
 0.000000000000000 -0.000000000000000 0.000000000000000
 271746.401632948 106297.326891951 501253.200982468
 197569.910241826 106503.260426177 534811.355606471
 141579.414026790 108734.840122009 551844.184591513
 100518.542845796 112135.817717004 560108.543881538
 70885.4845761097 115946.670302818 563854.252198296
 49715.0497078686 119670.746030281 565338.240681718
 34700.3123288480 123039.916893398 565735.863433764
 24113.6627222311 125941.619157598 565647.628682452
 16687.1576020901 128356.827475728 565372.499872013
 11501.6653649331 130317.099789783 565053.241027970
 7896.70827508080 131877.442355449 564753.027611365
 5400.95000578613 133100.218420349 564495.492980671
 3680.02574746821 134046.227026951 564285.447650688
 2498.00097188826 134770.251069699 564119.437191943
 1689.21854029816 135319.289241201 563990.989732974
 1137.90540741845 135732.317828315 563893.113159078
 763.505988601350 136040.862558507 563819.386659365
 510.205178214577 136269.934608907 563764.352023397
 339.486228034105 136439.069809997 563723.571423516
 224.872442814024 136563.334573378 563693.538265771
 148.234854091239 136654.226551602 563671.535907226
 97.2049053290997 136720.438597778 563655.490721804
 63.3767588098248 136768.493704504 563643.837110979
 41.0573134683483 136803.253585999 563635.403539009
 26.4060132586098 136828.317834183 563629.320335085
 16.8419183424949 136846.337562629 563624.945874511
 10.6377585168512 136859.257770048 563621.808883820
 6.64123255330586 136868.497362018 563619.565297158
 4.08727017887288 136875.089858222 563617.964369126
 2.47078113491627 136879.782788695 563616.824675785
 1.45878839937525 136883.115620601 563616.015258499
 0.832991976479798 136885.478550091 563615.441379509
 0.453488537032541 136887.150501891 563615.035309800
 0.227620318867075 136888.330893574 563614.748622780
 0.0966505765134307 136889.163093457 563614.546501032
 0.0248516959199322 136889.748478735 563614.404323939
 -0.0118421257650978 136890.159015101 563614.304613377
 -0.0284312187644625 136890.447380890 563614.234575263
 -0.0335256647644196 136890.649863402 563614.185396335
 -0.0330462745986665 136890.791605029 563614.150970101
 -0.0299131365311304 136890.889585457 563614.127172573
 -0.0256627996189661 136890.957561984 563614.110662395
 -0.0213028241496080 136891.005276513 563614.099073458
 -0.0166231526745699 136891.038364488 563614.091037025
 -0.0128070669454924 136891.061772503 563614.085351667
 -0.00971826756034815 136891.077594814 563614.081508731
 -0.00731847182146865 136891.087557813 563614.079088909
 -0.00539254960632780 136891.094351261 563614.077438910
 -0.00396580028765021 136891.098171076 563614.076511150
 -0.00240721961089975 136891.100654184 563614.075908051
 -0.00116642913988127 136891.102101616 563614.075556497
 -0.000711156338914601 136891.102034641 563614.075572764
 0.000225991242518105 136891.100816191 563614.075868702
 0.00134414720428417 136891.097748112 563614.076613880
 0.00258614531506154 136891.092927490 563614.077784717
 0.00517699240804258 136891.085194206 563614.079662984
 0.00862960562331911 136891.073128440 563614.082593528
 0.0131481480794326 136891.054947194 563614.087009404
 0.0193453531171954 136891.027441843 563614.093689926
 0.0255765610517617 136890.987099099 563614.103488401
 0.0319585218153634 136890.928295699 563614.117770608
 0.0374397848632478 136890.842315236 563614.138653586
 0.0406580875211206 136890.718865484 563614.168637100
 0.0399787482719825 136890.541597656 563614.211691915
 0.0301843813318711 136890.288283383 563614.273216791
 0.00491724163481537 136889.927634531 563614.360810841
 -0.0488380797733259 136889.413272783 563614.485738107
 -0.151285410637852 136888.682396398 563614.663251193
 -0.334265388903101 136887.644216958 563614.915399353
 -0.650890318132174 136886.172516783 563615.272835364
 -1.18225526035855 136884.091043948 563615.778361176
 -2.05700084002141 136881.150816039 563616.492437052
 -3.47494756682682 136877.008376208 563617.498456093
 -5.74402246770747 136871.186078705 563618.912376452
 -9.33794012384414 136863.021465432 563620.894988959
 -14.9787499616261 136851.602978697 563623.667474848
 -23.7679835471848 136835.676003315 563627.534110780
 -37.3735688669082 136813.526822457 563632.910218714
 -58.3150517734366 136782.826572722 563640.359585908
 -90.3856831200868 136740.424585555 563650.643674422
 -139.272417440887 136682.091789459 563664.781929164
 -213.482988259487 136602.189608829 563684.128053192
 -325.697577250462 136493.272271104 563710.458077384
 -494.767136953919 136345.611024320 563746.068332086
 -748.639304185110 136146.657450536 563793.869427682
 -1128.62974295619 135880.484362295 563857.446669255
 -1695.65893932678 135527.281888215 563941.025821631
 -2539.31317703120 135063.066947860 564049.217564591
 -3790.98662213084 134459.850138444 564186.296467025
 -5642.87830626508 133686.697101409 564354.520618500
 -8375.36650084133 132712.325557578 564550.521991678
 -12396.2794971376 131510.207857022 564757.821976847
 -18296.8926091117 130067.501442789 564931.561155226
 -26930.9503917665 128399.453697420 564967.524908468
 -39524.0594312833 126570.904804956 564639.402435685
 -57819.1450845095 124725.314873940 563471.864684736
 -84252.5298673015 123117.312978150 560485.181299202
 -122114.730017706 122131.744266039 553689.289904760
 -175526.997085545 122237.938758462 539117.945928545
 -248732.439718000 123746.426187657 509135.537394233
 0.000000000000000 -0.000000000000000 0.000000000000000
 0.000000000000000 -0.000000000000000 0.000000000000000
 0.000000000000000 0.000000000000000 0.000000000000000
 -0.000000000000000 -0.000000000000000 -0.000000000000000
 0.000000000000000 0.000000000000000 -0.000000000000000
 -0.000000000000000 0.000000000000000 0.000000000000000
 0.000000000000000 0.000000000000000 -0.000000000000000
 -0.000000000000000 0.000000000000000 0.000000000000000
 -0.000000000000000 0.000000000000000 0.000000000000000
 -0.000000000000000 0.000000000000000 0.000000000000000
 -0.000000000000000 -0.000000000000000 -0.000000000000000
 -0.000000000000000 0.000000000000000 0.000000000000000
 0.000000000000000 0.000000000000000 -0.000000000000000
 -0.000000000000000 0.000000000000000 0.000000000000000
 -0.000000000000000 0.000000000000000 0.000000000000000
 0.000000000000000 0.000000000000000 0.000000000000000
 0.000000000000000 -0.000000000000000 0.000000000000000
 0.000000000000000 0.000000000000000 -0.000000000000000
 0.000000000000000 0.000000000000000 -0.000000000000000
 -0.000000000000000 0.000000000000000 0.000000000000000
 0.000000000000000 0.000000000000000 -0.000000000000000
 0.000000000000000 -0.000000000000000 0.000000000000000
 0.000000000000000 -0.000000000000000 0.000000000000000
 -0.000000000000000 0.000000000000000 0.000000000000000
 0.000000000000000 0.000000000000000 -0.000000000000000
 284175.531311573 61720.6677072708 501831.472290802
 208500.083398485 63468.3669249604 537493.703798196
 150436.976053040 67093.8662916672 556117.909567794
 107320.197629755 71448.7284730979 565488.686341546
 75929.1907770735 75785.1330541033 569992.431174231
 53373.7102332498 79720.9174565991 572010.334151242
 37319.2208018283 83106.8291224752 572800.602925619
 25974.4162034530 85921.0710838399 573012.128359161
 18004.5599833898 88204.3362539576 572971.055888343
 12433.4339587388 90023.4516053096 572836.091636220
 8556.09530319811 91452.0203839187 572680.819655122
 5868.25918114196 92560.6148275198 572536.545660567
 4011.83030071189 93412.2562050562 572414.234281712
 2734.05795303610 94060.8083434687 572315.550427282
 1857.46903588150 94550.9278636231 572238.299879437
 1258.01895324715 94918.8051220032 572179.026024656
 849.365559694172 95193.2531334396 572134.182806812
 571.637738417115 95396.8820619057 572100.610140527
 383.468123181826 95547.2172821640 572075.678753986
 256.370183714873 95657.7068750998 572057.285059570
 170.792279944461 95738.5757941692 572043.788476810
 113.356313364611 95797.5398082888 572033.931263719
 74.9358944223024 95840.3822534628 572026.761187029
 49.3251876527984 95871.4110418654 572021.564376613
 32.3151414062603 95893.8150758114 572017.810199943
 21.0617100479907 95909.9460370410 572015.106275679
 13.6485225029727 95921.5290895046 572013.164246112
 8.78692205415445 95929.8253689693 572011.773067189
 5.61464660622204 95935.7541789367 572010.778778333
 3.55666045383586 95939.9814475706 572010.069795270
 2.22936543296980 95942.9885860264 572009.565423701
 1.37963079456854 95945.1243646102 572009.207188797
 0.840350502435849 95946.6379062529 572008.953316100
 0.501069391680038 95947.7080774440 572008.773808964
 0.290239638314509 95948.4640047915 572008.647010722
 0.161303078709749 95948.9964966438 572008.557690583
 0.0832496684994708 95949.3710584565 572008.494861291
 0.0390681705351031 95949.6343011129 572008.450704604
 0.0141403976541636 95949.8198826574 572008.419574822
 0.000564337939271766 95949.9499345087 572008.397759653
 -0.00586319520456411 95950.0397442359 572008.382694764
 -0.00841945860982391 95950.1019003216 572008.372268552
 -0.00892724515291770 95950.1456569384 572008.364928707
 -0.00800901764116742 95950.1759052315 572008.359854780
 -0.00675737381293221 95950.1976050183 572008.356214800
 -0.00566159319921891 95950.2118919761 572008.353818268
 -0.00487234458762114 95950.2212973866 572008.352240579
 -0.00406050285475422 95950.2273950956 572008.351217733
 -0.00318235109528738 95950.2311216311 572008.350592634
 -0.00250434432178726 95950.2340409668 572008.350102937
 -0.00167849799090477 95950.2354746265 572008.349862451
 -0.00143416702098706 95950.2359129432 572008.349788926
 -0.000850471571081531 95950.2345212044 572008.350022380
 -0.000947929679194130 95950.2316287107 572008.350507575
 -0.000453302200684456 95950.2274631882 572008.351206311
 0.000758760010322647 95950.2202772347 572008.352411702
 0.00286200167643111 95950.2086622929 572008.354360024
 0.00579249933564640 95950.1915666123 572008.357227699
 0.00830916418901879 95950.1657653599 572008.361555668
 0.0101679263526749 95950.1287366913 572008.367766952
 0.0104909965086043 95950.0750536472 572008.376771879
 0.00749875468634851 95949.9961980792 572008.389999298
 -0.00105496243998735 95949.8831917831 572008.408955221
 -0.0184149741607271 95949.7214566740 572008.436084981
 -0.0516808421406814 95949.4908870169 572008.474761100
 -0.110421975059332 95949.1630609181 572008.529750997
 -0.210727319781359 95948.6969389114 572008.607938448
 -0.378405301747847 95948.0351055357 572008.718953867
 -0.653166937757936 95947.0975381386 572008.876219225
 -1.09746613327459 95945.7712441985 572009.098685634
 -1.80716400913080 95943.8998302420 572009.412581732
 -2.92946719700066 95941.2636606031 572009.854739081
 -4.68936136550184 95937.5586899865 572010.476137121
 -7.43044421429379 95932.3655399308 572011.347078624
 -11.6716609459100 95925.1029681042 572012.564970675
 -18.1985960014156 95914.9749720143 572014.263148157
 -28.1956160314730 95900.8909512762 572016.624163808
 -43.4379768842155 95881.3671412986 572019.896112240
 -66.5887306485140 95854.3955142735 572024.414187484
 -101.622943732477 95817.2748538230 572030.628124373
 -154.460711670908 95766.3980823513 572039.136021497
 -233.901947615593 95696.9864429315 572050.725089673
 -352.986338224131 95602.7701838450 572066.417240009
 -530.999542909450 95475.6185122181 572087.514554543
 -796.396254927970 95305.1351318025 572115.632517164
 -1191.06766978458 95078.2529313674 572152.695683001
 -1776.55642138184 94778.9131781744 572200.840146225
 -2643.07459314974 94387.9530593933 572262.115183202
 -3922.58864267727 93883.4317380736 572337.762639705
 -5807.74245619422 93241.7399983683 572426.631149913
 -8579.16812821417 92440.0181945574 572521.825706599
 -12644.7811840282 91460.6177589488 572603.759075994
 -18596.0549958530 90298.5553127338 572625.844375736
 -27287.9793946510 88973.0067860788 572485.082988196
 -39950.8479623003 87543.5719990324 571961.583280506
 -58341.2107258867 86130.6556936819 570594.263273663
 -84929.3128340620 84935.2361131350 567426.662651606
 -123079.879841656 84243.1855147303 560494.807177100
 -177051.023430956 84376.0863715957 545832.951690043
 -251258.306585931 85503.1033142477 515711.627457830
 -0.000000000000000 0.000000000000000 -0.000000000000000
 0.000000000000000 0.000000000000000 -0.000000000000000
 -0.000000000000000 0.000000000000000 0.000000000000000
 0.000000000000000 0.000000000000000 -0.000000000000000
 0.000000000000000 0.000000000000000 0.000000000000000
 -0.000000000000000 0.000000000000000 0.000000000000000
 0.000000000000000 0.000000000000000 0.000000000000000
 0.000000000000000 0.000000000000000 0.000000000000000
 -0.000000000000000 -0.000000000000000 0.000000000000000
 -0.000000000000000 -0.000000000000000 0.000000000000000
 -0.000000000000000 -0.000000000000000 -0.000000000000000
 0.000000000000000 0.000000000000000 0.000000000000000
 -0.000000000000000 -0.000000000000000 0.000000000000000
 0.000000000000000 0.000000000000000 -0.000000000000000
 0.000000000000000 0.000000000000000 0.000000000000000
 0.000000000000000 0.000000000000000 -0.000000000000000
 -0.000000000000000 -0.000000000000000 0.000000000000000
 0.000000000000000 -0.000000000000000 -0.000000000000000
 0.000000000000000 -0.000000000000000 -0.000000000000000
 0.000000000000000 0.000000000000000 -0.000000000000000
 0.000000000000000 -0.000000000000000 0.000000000000000
 0.000000000000000 -0.000000000000000 0.000000000000000
 -0.000000000000000 0.000000000000000 -0.000000000000000
 0.000000000000000 0.000000000000000 0.000000000000000
 -0.000000000000000 0.000000000000000 -0.000000000000000
 303454.062359780 25319.5458205055 493634.027024870
 225874.239911489 29466.3681783817 533397.188679115
 164312.388926027 35472.0784245431 555106.449699213
 117669.912294112 41534.3182027028 566417.418651768
 83360.6884128763 46886.9558971913 572059.969753195
 58600.1297739154 51330.3726230099 574744.480301345
 40955.4692529565 54904.1490700797 575941.128895272
 28491.9503911133 57727.1271440499 576416.331790317
 19745.1512830644 59931.1153388623 576557.360906137
 13637.7472791113 61636.9418495117 576554.333301373
 9391.02947277680 62947.7021739872 576497.524154663