# OOMMF OVF 2.0
#
# Segment count: 1
#
# Begin: Segment
# Begin: Header
#
# Title: Oxs_TimeDriver::Magnetization
# Desc: Oxs vector field output
# Desc:  MIF source file: C:/Users/Victor H. González/Documents/GitHub/Intro-to-magnetism-in-python/domain_wall_conversion_thin_film/drive-40/domain_wall_conversion_thin_film.mif
# Desc:  Iteration: 3086, State id: 21697
# Desc:  Stage: 256, Stage iteration: 11
# Desc:  Stage simulation time: 2e-12 s
# Desc:  Total simulation time: 5.14e-10 s
# meshunit: m
# meshtype: rectangular
# xbase: 1.0000000000000001e-09
# ybase: 1.0000000000000001e-09
# zbase: 1.0000000000000001e-09
# xnodes: 225
# ynodes: 100
# znodes: 1
# xstepsize: 2.0000000000000001e-09
# ystepsize: 2.0000000000000001e-09
# zstepsize: 2.0000000000000001e-09
# xmin: 0
# ymin: 0
# zmin: 0
# xmax: 4.5000000000000003e-07
# ymax: 2.0000000000000002e-07
# zmax: 2.0000000000000001e-09
# valuedim: 3
# valuelabels: Magnetization_x Magnetization_y Magnetization_z
# valueunits: A/m A/m A/m
#
# End: Header
#
# Begin: Data Text
 0.000000000000000 -0.000000000000000 -0.000000000000000
 -0.000000000000000 0.000000000000000 0.000000000000000
 0.000000000000000 0.000000000000000 -0.000000000000000
 0.000000000000000 0.000000000000000 0.000000000000000
 0.000000000000000 0.000000000000000 0.000000000000000
 0.000000000000000 -0.000000000000000 0.000000000000000
 -0.000000000000000 -0.000000000000000 0.000000000000000
 -0.000000000000000 -0.000000000000000 -0.000000000000000
 -0.000000000000000 0.000000000000000 -0.000000000000000
 -0.000000000000000 -0.000000000000000 -0.000000000000000
 0.000000000000000 -0.000000000000000 -0.000000000000000
 0.000000000000000 0.000000000000000 0.000000000000000
 0.000000000000000 0.000000000000000 -0.000000000000000
 0.000000000000000 0.000000000000000 0.000000000000000
 0.000000000000000 0.000000000000000 -0.000000000000000
 -0.000000000000000 0.000000000000000 -0.000000000000000
 0.000000000000000 -0.000000000000000 -0.000000000000000
 -0.000000000000000 -0.000000000000000 0.000000000000000
 0.000000000000000 -0.000000000000000 -0.000000000000000
 -0.000000000000000 -0.000000000000000 -0.000000000000000
 0.000000000000000 -0.000000000000000 0.000000000000000
 0.000000000000000 -0.000000000000000 0.000000000000000
 0.000000000000000 0.000000000000000 -0.000000000000000
 -0.000000000000000 -0.000000000000000 0.000000000000000
 0.000000000000000 -0.000000000000000 0.000000000000000
 250275.856893058 337883.750681276 399495.389813198
 187028.866038131 336752.308514540 433610.523371630
 135943.226447915 331284.067371679 456256.842018406
 96794.1385801142 323654.061858046 471464.678400536
 67779.4875461543 315424.204382942 481989.120579883
 46763.5714696413 307513.701944631 489539.060239030
 31799.5995514894 300385.644793525 495133.567707082
 21292.4955311188 294220.124151879 499380.764725785
 14006.0501186178 289035.219513712 502655.421179096
 9013.54050374651 284763.760223625 505201.303393894
 5635.41489035930 281299.724623231 507187.053290902
 3381.26642823171 278525.197126146 508735.964526966
 1901.58717506340 276325.230710009 509941.909279161
 949.894530779723 274595.330330747 510878.167727814
 354.001002357175 273244.539046903 511602.674508583
 -5.29372583647684 272196.000568732 512161.436703666
 -209.751220928914 271386.163018775 512590.973902557
 -314.902419690993 270763.335132441 512920.185978700
 -358.045787308031 270286.016451018 513171.843649138
 -363.908629857105 269921.238256981 513363.801517333
 -348.622760199075 269643.039429080 513509.989921927
 -322.498436873606 269431.129286547 513621.224801054
 -291.944891215499 269269.752945998 513705.864203030
 -260.791700634285 269146.747720650 513770.337971243
 -231.189791873061 269052.774434626 513819.570589045
 -204.220844117771 268980.696169197 513857.318116791
 -180.305120182791 268925.085102345 513886.433069370
 -159.470135705024 268881.830445593 513909.073499879
 -141.526246796309 268847.833234180 513926.864967777
 -126.176492773955 268820.766001222 513941.027595588
 -113.086573956014 268798.888775014 513952.473099161
 -101.923154880110 268780.905141713 513961.880534804
 -92.3783002936767 268765.853465364 513969.753465400
 -84.1771945729925 268753.022677913 513976.464165126
 -77.0846274115539 268741.888694124 513982.286970159
 -70.9008708726585 268732.066730987 513987.423273720
 -65.4621785243837 268723.273949370 513992.021098222
 -60.6332006780996 268715.304054962 513996.188400521
 -56.3060499339480 268708.004499463 514000.005007340
 -52.3929985303584 268701.264747971 514003.528760080
 -48.8252281999951 268695.001102856 514006.803455396
 -45.5475975469390 268689.153385609 514009.860584738
 -42.5166928331270 268683.673522550 514012.725304305
 -39.6986652848663 268678.527263634 514015.415538737
 -37.0656758221674 268673.684709485 514017.946934506
 -34.5974278606830 268669.124629770 514020.330603460
 -32.2751208945560 268664.826492824 514022.577290042
 -30.0869726069314 268660.775347541 514024.694819648
 -28.0191697620988 268656.955841336 514026.691226237
 -26.0652194272638 268653.355784128 514028.572889223
 -24.2140075417873 268649.963190759 514030.346080156
 -22.4622033469847 268646.766775728 514032.016703627
 -20.8003167776522 268643.757246294 514033.589622255
 -19.2266514323762 268640.923248214 514035.070775023
 -17.7330788945784 268638.257952352 514036.463735662
 -16.3183089542130 268635.749493960 514037.774708757
 -14.9758252992435 268633.393335206 514039.006069517
 -13.7036785320168 268631.177056870 514040.164311360
 -12.4974811934857 268629.098078661 514041.250785633
 -11.3537101856989 268627.143739351 514042.272111479
 -10.2706667207937 268625.312814672 514043.228930926
 -9.24256557153428 268623.593044664 514044.127652821
 -8.27078901602268 268621.983673845 514044.968673678
 -7.34695059812345 268620.473761415 514045.757712497
 -6.47554866111748 268619.061910480 514046.495500554
 -5.64573553079037 268617.739580708 514047.186502052
 -4.86465569770995 268616.503538135 514047.832407921
 -4.11971300616367 268615.348716066 514048.435866869
 -3.41964784051476 268614.268961321 514049.000095012
 -2.75141846582978 268613.263526644 514049.525483679
 -2.12375654846941 268612.322606080 514050.017157529
 -1.52497795941282 268611.450152854 514050.473051484
 -0.961794070390876 268610.632556096 514050.900278260
 -0.425969551694332 268609.878173247 514051.294471254
 0.0799519456530059 268609.170200411 514051.664411507
 0.558704827657890 268608.520288302 514052.004011479
 1.01382335918046 268607.909897566 514052.322958893
 1.44093559706067 268607.352032989 514052.614458627
 1.85089994350004 268606.828660108 514052.887934436
 2.23150702930123 268606.351516644 514053.137253278
 2.60111329404079 268605.905863180 514053.370117009
 2.94018202917550 268605.499186112 514053.582614046
 3.27336635496948 268605.122980868 514053.779188246
 3.57577010110632 268604.777606640 514053.959652195
 3.87565655222917 268604.463353706 514054.123854139
 4.14618097241832 268604.171254606 514054.276480057
 4.41519827020845 268603.911989894 514054.411948999
 4.65846891700435 268603.666317028 514054.540315858
 4.89853841817008 268603.455401047 514054.650521345
 5.11887486405988 268603.250494804 514054.757586605
 5.33165760600165 268603.081470836 514054.845902599
 5.53287432128612 268602.912809500 514054.934029078
 5.72004946349238 268602.779351835 514055.003761029
 5.90523855676496 268602.643416804 514055.074787356
 6.06877221723250 268602.539382872 514055.129144962
 6.24011416355960 268602.433432819 514055.184503599
 6.38246982594655 268602.353016719 514055.226520600
 6.54112222139411 268602.274781450 514055.267397820
 6.66536449502177 268602.212746781 514055.299810347
 6.81147330109232 268602.160071622 514055.327332051
 6.92122759649159 268602.112022076 514055.352437242
 7.05408940706811 268602.082511467 514055.367855198
 7.15334096771423 268602.045142588 514055.387379657
 7.27171969765382 268602.035862977 514055.392226739
 7.36446410483700 268602.007131891 514055.407237862
 7.46703452659493 268602.014435283 514055.403420245
 7.55682378784894 268601.993590258 514055.414310786
 7.64268283392849 268602.013108530 514055.404110913
 7.73214038030082 268602.000538157 514055.410677793
 7.80130161541043 268602.027374285 514055.396654450
 7.89169928878518 268602.024265625 514055.398277393
 7.94547303455187 268602.053373875 514055.383067046
 8.03646753698588 268602.061206032 514055.378973206
 8.07763400837479 268602.087914182 514055.365017129
 8.16724558450593 268602.107852234 514055.354597764
 8.19995340840287 268602.128442426 514055.343838539
 8.28483529389156 268602.160728766 514055.326967049
 8.31420124025323 268602.172967939 514055.320571410
 8.39019816385039 268602.216426006 514055.297862633
 8.42163975736469 268602.219929357 514055.296031563
 8.48457502681089 268602.271692264 514055.268983567
 8.52296614815707 268602.268018268 514055.270902654
 8.56954037244301 268602.323568497 514055.241875975
 8.61832926486093 268602.315982014 514055.245839222
 8.64697206007857 268602.369539483 514055.217854080
 8.70742995608149 268602.362435872 514055.221564814
 8.71893077600562 268602.407666827 514055.197930693
 8.78969892475255 268602.405716430 514055.198948603
 8.78746224723139 268602.436666597 514055.182776662
 8.86453109060103 268602.443803900 514055.179045978
 8.85435548734088 268602.455900964 514055.172725236
 8.93154325848204 268602.474333290 514055.163092699
 8.92090593614916 268602.465270262 514055.167828468
 8.99081262433382 268602.494703908 514055.152447675
 8.98773626119062 268602.465015619 514055.167960361
 9.04304736788871 268602.502282054 514055.148487049
 9.05471649378105 268602.455464023 514055.172950054
 9.08964050341612 268602.494670520 514055.152463382
 9.12100337946680 268602.436758221 514055.182722977
 9.13257153026597 268602.469992045 514055.165357541
 9.18519725896808 268602.408610538 514055.197429468
 9.17415357107704 268602.427112715 514055.187761969
 9.24560300961179 268602.370111482 514055.217544782
 9.21667238692993 268602.365733443 514055.219832899
 9.30057733663092 268602.319624799 514055.243923916
 9.26200672552654 268602.286315186 514055.261329432
 9.34893164146180 268602.254814265 514055.277787604
 9.31132654625961 268602.189865674 514055.311724977
 9.39032169865239 268602.172853809 514055.320612513
 9.36492157471851 268602.077662419 514055.370351998
 9.42550207830177 268602.070834152 514055.373918770
 9.42214275097301 268601.950973471 514055.436547916
 9.45630349956408 268601.946276801 514055.439001372
 9.48140749515042 268601.810757657 514055.509811743
 9.48526841092776 268601.797539437 514055.516718392
 9.54028346065060 268601.657242690 514055.590024526
 9.51507147441670 268601.623844698 514055.607475937
 9.59581218158284 268601.489291963 514055.677780199
 9.54808563349662 268601.424774104 514055.711492593
 9.64537661184333 268601.303617137 514055.774796997
 9.58662820687414 268601.199308078 514055.829301019
 9.68852094998135 268601.094071374 514055.884286712
 9.63460563878699 268600.944700877 514055.962335786
 9.73047534537946 268600.851329078 514056.011121953
 9.70200295986229 268600.655626447 514056.113379574
 9.78958012140642 268600.563494480 514056.161517991
 9.81613489433642 268600.324878483 514056.286197160
 9.91487652333774 268600.220145614 514056.340919381
 10.0496118084129 268599.951139944 514056.481475164
 10.2288289734114 268599.830313702 514056.544604600
 10.5866051919091 268599.573477128 514056.678797026
 11.0252185839760 268599.488592179 514056.723141001
 11.8672242153729 268599.390392028 514056.774432747
 12.9729400086329 268599.583508947 514056.673500620
 14.8703402280193 268600.113243815 514056.396657296
 17.4915221922759 268601.381341463 514055.733977848
 21.5939954431418 268603.910804460 514054.412133821
 27.3267159378105 268608.522748527 514052.001999900
 35.6830517299373 268616.742354915 514047.706398300
 47.1115020044758 268630.598604985 514040.464626700
 62.6746380420274 268653.759199822 514028.358886641
 82.8150157555421 268691.185750306 514008.793545176
 107.777971369788 268751.087314074 513977.471735301
 136.336748487249 268844.858980105 513928.422265454
 164.720716745328 268990.000886498 513852.461597847
 184.392096958963 269210.945298231 513736.735041584
 177.872252470634 269543.150236931 513562.516663564
 113.100934796712 270035.436588861 513303.857568245
 -67.5171762471985 270755.300029975 512924.519736686
 -461.973092594525 271792.823079016 512375.299857049
 -1234.68838728389 273266.184572341 511589.745708279
 -2653.23712479688 275325.027764734 510479.274230706
 -5147.18892875371 278151.502210351 508925.582245830
 -9392.15735417216 281954.469715355 506767.663123613
 -16435.1788264406 286950.450670059 503775.072584178
 -27867.7746450079 293320.042362217 499586.568959737
 -46055.0426815674 301115.184978537 493567.197470558
 -74383.3387804152 310073.655468176 484480.595170210
 -117362.424026681 319259.591090704 469786.520584806
 -179995.400143505 326471.614332631 444317.387643366
 -0.000000000000000 -0.000000000000000 -0.000000000000000
 -0.000000000000000 -0.000000000000000 -0.000000000000000
 0.000000000000000 0.000000000000000 -0.000000000000000
 0.000000000000000 -0.000000000000000 0.000000000000000
 -0.000000000000000 -0.000000000000000 -0.000000000000000
 -0.000000000000000 -0.000000000000000 -0.000000000000000
 0.000000000000000 0.000000000000000 0.000000000000000
 0.000000000000000 0.000000000000000 -0.000000000000000
 0.000000000000000 0.000000000000000 -0.000000000000000
 0.000000000000000 0.000000000000000 -0.000000000000000
 -0.000000000000000 0.000000000000000 0.000000000000000
 -0.000000000000000 -0.000000000000000 0.000000000000000
 0.000000000000000 -0.000000000000000 -0.000000000000000
 -0.000000000000000 -0.000000000000000 -0.000000000000000
 -0.000000000000000 0.000000000000000 0.000000000000000
 -0.000000000000000 0.000000000000000 0.000000000000000
 -0.000000000000000 -0.000000000000000 -0.000000000000000
 0.000000000000000 0.000000000000000 -0.000000000000000
 0.000000000000000 -0.000000000000000 0.000000000000000
 -0.000000000000000 -0.000000000000000 -0.000000000000000
 -0.000000000000000 0.000000000000000 0.000000000000000
 0.000000000000000 -0.000000000000000 -0.000000000000000
 0.000000000000000 0.000000000000000 -0.000000000000000
 0.000000000000000 -0.000000000000000 0.000000000000000
 -0.000000000000000 0.000000000000000 0.000000000000000
 248273.065163388 272661.084734435 447678.922874215
 182374.774389926 269478.646662448 480125.713390982
 131008.050110551 261647.955747210 500776.634897772
 92450.9605864330 252100.829696541 514099.203999541
 64263.0179913366 242458.349142689 522957.181277442
 44045.6797168114 233543.606058338 529072.171038651
 29758.5099838142 225711.319137352 533449.933449072
 19788.0491441841 219053.796941339 536678.551049555
 12910.6044052484 213524.737089895 539110.844766253
 8221.98537959527 209011.621878514 540968.151443438
 5065.84865164146 205377.042996115 542397.093822976
 2972.00703412623 202481.494870392 543500.148490541
 1607.20257547158 200195.178581322 544352.190564779
 737.420245547880 198403.343277377 545009.696783224
 199.761060783592 197007.908360104 545516.126378585
 -118.186637487601 195927.034993700 545905.287564149
 -293.288647577456 195093.661330899 546203.604245041
 -377.574865956885 194453.607006228 546431.745197411
 -405.856441840450 193963.595305763 546605.853405002
 -401.098481933222 193589.384753290 546738.501690571
 -378.188669674526 193304.097759677 546839.448798866
 -346.558165338162 193086.784199075 546916.240081695
 -311.996498762562 192921.212288570 546974.687263765
 -277.895146502279 192794.877607093 547019.248237896
 -246.095744045652 192698.193679146 547053.329749193
 -217.461418408425 192623.849031105 547079.523922230
 -192.257261707972 192566.289543912 547099.796352032
 -170.402171952797 192521.317913971 547115.630476563
 -151.628012590530 192485.772372638 547128.142616568
 -135.584856110705 192457.284489882 547138.168348296
 -121.898043359943 192434.084301911 547146.331742937
 -110.209771460203 192414.856988660 547153.096184093
 -100.190576887075 192398.627566548 547158.805167528
 -91.5558284714288 192384.676732329 547163.712042499
 -84.0580000700081 192372.475468328 547168.003099998
 -77.4948915777931 192361.634380634 547171.815440957
 -71.6950499236113 192351.870156229 547175.248807200
 -66.5238968140941 192342.972205977 547178.377330046
 -61.8685276707034 192334.790177308 547181.253936697
 -57.6426962316110 192327.208085850 547183.919452337
 -53.7747920245061 192320.146251916 547186.401927089
 -50.2101158460946 192313.537532667 547188.724994052
 -46.9049636670792 192307.339080966 547190.903739749
 -43.8236052666074 192301.508555490 547192.953067539
 -40.9409528238240 192296.021729224 547194.881510191
 -38.2316280257104 192290.849098058 547196.699452300
 -35.6830564500891 192285.975176536 547198.412348874
 -33.2747906679802 192281.377913279 547200.027961036
 -31.0027420881149 192277.045005157 547201.550621811
 -28.8484231928549 192272.959928695 547202.986146848
 -26.8133227412906 192269.110233045 547204.338918505
 -24.8798043917365 192265.484656385 547205.612901441
 -23.0524573262629 192262.068522523 547206.813258045
 -21.3147968164060 192258.856135327 547207.941995741
 -19.6720660991606 192255.829416071 547209.005470989
 -18.1102494447404 192252.988407031 547210.003673713
 -16.6326980082409 192250.311319336 547210.944262787
 -15.2297968073491 192247.803506498 547211.825361057
 -13.9004679388294 192245.440121369 547212.655700979
 -12.6415870376975 192243.230515292 547213.432000015
 -11.4454207215025 192241.148463595 547214.163473864
 -10.3170690593371 192239.205015910 547214.846242688
 -9.24065424853520 192237.375227187 547215.489072058
 -8.23034355056143 192235.668670259 547216.088600436
 -7.26182623131734 192234.065073425 547216.651951137
 -6.35780610522127 192232.568819840 547217.177585375
 -5.48684214997520 192231.167989413 547217.669692162
 -4.67793873555048 192229.858078150 547218.129854422
 -3.89562136581806 192228.638838498 547218.558160378
 -3.17117511569412 192227.493912133 547218.960357007
 -2.46989416521787 192226.436929371 547219.331657186
 -1.81980021566795 192225.438216751 547219.682485074
 -1.19301316018492 192224.525618473 547220.003060314
 -0.607861580226059 192223.656887833 547220.308223570
 -0.0497787129045921 192222.871955394 547220.583948756
 0.478923164356432 192222.119398737 547220.848299504
 0.973714264099581 192221.446374093 547221.084711567
 1.45327432285635 192220.798387849 547221.312327130
 1.89019867330625 192220.222425701 547221.514641961
 2.32648219519944 192219.669266393 547221.708945932
 2.71131919994471 192219.176542513 547221.882020416
 3.10856736772103 192218.709858655 547222.045947174
 3.44767522769718 192218.287818336 547222.194191995
 3.80846746453370 192217.900088200 547222.330384258
 4.10882696805999 192217.537788602 547222.457643695
 4.43424153061560 192217.221723022 547222.568662350
 4.70327675315020 192216.910195096 547222.678087202
 4.99327617706493 192216.658188888 547222.766604025
 5.23844435200786 192216.390725106 547222.860550591
 5.49247212640225 192216.194453491 547222.929490030
 5.72065963901023 192215.966722884 547223.009479738
 5.93838746286903 192215.816974833 547223.062077462
 6.15519643771135 192215.626881389 547223.128846642
 6.33731601129973 192215.513697003 547223.168601290
 6.54636687083741 192215.360932738 547223.222258196
 6.69528644744693 192215.274067061 547223.252768464
 6.89768592658702 192215.159364202 547223.293055967
 7.01797962316515 192215.089040335 547223.317756074
 7.21210215995864 192215.013190896 547223.344396060
 7.31057671645054 192214.951040138 547223.366225523
 7.49227460556681 192214.913814524 547223.379298748
 7.57756666719802 192214.853843214 547223.400362788
 7.74086107946272 192214.852988864 547223.400660597
 7.82255468858565 192214.792374438 547223.421950541
 7.96077249464093 192214.822897643 547223.411227128
 8.04812097600334 192214.762412344 547223.432471595
 8.15534469434954 192214.816330861 547223.413530876
 8.25577717392367 192214.760228267 547223.433235669
 8.32838573751739 192214.826924939 547223.409807049
 8.44605619035844 192214.782202172 547223.425514329
 8.48407308967526 192214.849414076 547223.401905240
 8.61874919343283 192214.824472954 547223.410663825
 8.62670037019467 192214.879829544 547223.391219430
 8.77327507734679 192214.882685953 547223.390213773
 8.76030365724743 192214.915583855 547223.378658431
 8.90913737632175 192214.951892919 547223.365902289
 8.88822737055164 192214.955390460 547223.364674100
 9.02639759827864 192215.026639538 547223.339645236
 9.01271262732850 192214.998996492 547223.349355224
 9.12607810283631 192215.101245039 547223.313438009
 9.13459994034999 192215.046742822 547223.332582059
 9.21040656768803 192215.170241663 547223.289201161
 9.25322845322959 192215.099005239 547223.314222616
 9.28283047270546 192215.228904834 547223.268594173
 9.36658491842707 192215.155604039 547223.294340054
 9.34776421805342 192215.273774588 547223.252832315
 9.47171167447275 192215.215288183 547223.273373861
 9.41008061578541 192215.303053435 547223.242546884
 9.56533234300561 192215.275399446 547223.252257815
 9.47441519486376 192215.316773114 547223.237726659
 9.64460639196552 192215.331801450 547223.232444895
 9.54440361279719 192215.316657081 547223.237766199
 9.70788696211623 192215.379121186 547223.215822443
 9.62200393031822 192215.305664159 547223.241626168
 9.75533590078624 192215.411300138 547223.204518551
 9.70705367750874 192215.287268106 547223.248086384
 9.78925121429289 192215.422391296 547223.200622110
 9.79717373904102 192215.264587986 547223.256051300
 9.81399285916457 192215.407472394 547223.205862020
 9.88806833861671 192215.239517351 547223.264855866
 9.83546046156973 192215.363489485 547223.221310892
 9.97420281462941 192215.212003001 547223.274518872
 9.86017860071652 192215.289824337 547223.247185756
 10.0497833898034 192215.179608638 547223.285896188
 9.89415732754508 192215.188421114 547223.282803594
 10.1099134370468 192215.137480426 547223.300692844
 9.94177156359784 192215.063416142 547223.326711398
 10.1517434674176 192215.078805357 547223.321302001
 10.0048981152957 192214.920350328 547223.376962844
 10.1753645538779 192214.995786076 547223.350462515
 10.0824584619994 192214.765133925 547223.431481926
 10.1841564640386 192214.881010692 547223.390777778
 10.1703980733175 192214.602921076 547223.488458287
 10.1843704420933 192214.728889896 547223.444210921
 10.2620833256195 192214.436958585 547223.546751585
 10.1839603517347 192214.536672856 547223.511728002
 10.3491648414627 192214.267411832 547223.606303884
 10.1910298122271 192214.304590414 547223.593247738
 10.4230782456568 192214.090254145 547223.668529725
 10.2125759011582 192214.034968753 547223.687952864
 10.4774073743782 192213.896501763 547223.736584802
 10.2543599015192 192213.730552678 547223.794879088
 10.5113771202863 192213.672164285 547223.815383278
 10.3229627852116 192213.392500285 547223.913619432
 10.5353545788295 192213.399137748 547223.911283964
 10.4323234204382 192213.018684997 547224.044920513
 10.5817636534827 192213.057621673 547224.031241094
 10.6210478281862 192212.604599180 547224.190364783
 10.7312970294251 192212.634320538 547224.179922999
 10.9957963136003 192212.156795367 547224.347648354
 11.1770152996407 192212.154597331 547224.348416740
 11.8322186822527 192211.752574667 547224.489612968
 12.3692563609584 192211.795683818 547224.474459069
 13.7881918678998 192211.741003834 547224.493631417
 15.3090323508420 192212.233142478 547224.320727812
 18.3051826804712 192213.324388094 547223.937335162
 22.0655771005377 192215.588781101 547223.141819354
 28.2497105413558 192220.078067671 547221.564624067
 36.5042560216327 192227.813368620 547218.846929597
 48.6329613605795 192241.634432900 547213.990706928
 64.7724963065674 192264.282212812 547206.032121098
 86.4194959110352 192302.067199139 547192.751672213
 113.610612072732 192362.159437093 547171.624546931
 145.884833704294 192457.860623485 547137.963042089
 180.284610580016 192606.089044525 547085.790311202
 209.004805776994 192834.022991057 547005.480680108
 216.762669337241 193177.997749335 546884.095763904
 172.770061824696 193691.300068922 546702.524622044
 23.5008302267928 194445.515782508 546434.754421591
 -326.307958364532 195538.883420314 546044.355884989
 -1034.49786709544 197099.861332449 545481.965308563
 -2363.38816961829 199293.583601297 544680.164804735
 -4733.12472368742 202323.410994396 543546.534248855
 -8811.77044724717 206426.987491681 541950.414278552
 -15637.9275968164 211860.371171638 539694.949344065
 -26805.9696793103 218856.068088274 536454.528781790
 -44713.9660410104 227535.558395832 531627.906440567
 -72884.2387510182 237716.423397325 524002.662005516
 -116278.130901759 248490.088949948 511010.833512989
 -181336.077823783 257225.476767747 487188.137151443
 -0.000000000000000 0.000000000000000 -0.000000000000000
 -0.000000000000000 -0.000000000000000 0.000000000000000
 -0.000000000000000 -0.000000000000000 -0.000000000000000
 0.000000000000000 0.000000000000000 0.000000000000000
 0.000000000000000 -0.000000000000000 -0.000000000000000
 -0.000000000000000 0.000000000000000 0.000000000000000
 0.000000000000000 0.000000000000000 -0.000000000000000
 -0.000000000000000 0.000000000000000 0.000000000000000
 0.000000000000000 0.000000000000000 0.000000000000000
 0.000000000000000 -0.000000000000000 -0.000000000000000
 -0.000000000000000 0.000000000000000 0.000000000000000
 -0.000000000000000 0.000000000000000 0.000000000000000
 -0.000000000000000 0.000000000000000 -0.000000000000000
 -0.000000000000000 -0.000000000000000 0.000000000000000
 -0.000000000000000 0.000000000000000 0.000000000000000
 0.000000000000000 0.000000000000000 -0.000000000000000
 -0.000000000000000 0.000000000000000 -0.000000000000000
 -0.000000000000000 0.000000000000000 0.000000000000000
 0.000000000000000 -0.000000000000000 0.000000000000000
 0.000000000000000 0.000000000000000 -0.000000000000000
 -0.000000000000000 -0.000000000000000 0.000000000000000
 -0.000000000000000 0.000000000000000 -0.000000000000000
 -0.000000000000000 -0.000000000000000 -0.000000000000000
 -0.000000000000000 0.000000000000000 -0.000000000000000
 0.000000000000000 -0.000000000000000 0.000000000000000
 244690.923810078 219785.649541704 477724.418530708
 176404.349848005 216215.175466526 508460.916150575
 124672.652621747 207371.215822636 527118.495726054
 86770.3260806765 196817.583706845 538640.649464606
 59594.0613661962 186392.555314421 545991.174995753
 40399.7388259992 176942.909807665 550871.189818080
 27000.8324380200 168778.339481376 554242.570694063
 17743.7580308117 161933.397513277 556653.153966410
 11413.4931326599 156311.950928669 558423.053044361
 7132.56972899896 151764.520645444 559746.957760665
 4274.55652019084 148128.541960044 560749.198147752
 2396.11693256639 145248.416233799 561513.273400744
 1185.83063427403 142984.596315972 562097.855379351
 426.492200483473 141216.767210326 562545.680601200
 -32.2868596950939 139843.915390685 562888.690849053
 -293.812019229026 138782.853853344 563151.163677053
 -428.413317566067 137966.081914581 563351.734445869
 -483.476424242109 137339.469355727 563504.779400880
 -490.527540056056 136860.028466466 563621.408385887
 -470.217988970883 136493.898537646 563710.204410953
 -435.803080756949 136214.599048075 563777.786970938
 -395.564016662569 136001.548861194 563829.249184950
 -354.475154765836 135838.846005414 563868.497314118
 -315.350238052300 135714.264649538 563898.518285749
 -279.618337094071 135618.456005711 563921.586928725
 -247.846884089674 135544.300022547 563939.430527180
 -220.089430912375 135486.404167462 563953.354317902
 -196.109994087787 135440.696674392 563964.342157575
 -175.531834611282 135404.122342429 563973.131311459
 -157.921508956796 135374.392750797 563980.273456572
 -142.850083190045 135349.806355406 563986.178477281
 -129.912734310590 135329.098409820 563991.150858120
 -118.755124782950 135311.335948195 563995.415106484
 -109.064298884371 135295.831024273 563999.136712486
 -100.583804520850 135282.077986299 564002.437280734
 -93.0928498655313 135269.707998781 564005.405498605
 -86.4191828142965 135258.447512895 564008.107129788
 -80.4152641196638 135248.101154821 564010.589144744
 -74.9704775742421 135238.518145639 564012.887786440
 -69.9899463456269 135229.595871510 564015.027726953
 -65.4037968796432 135221.246624710 564017.030047500
 -61.1533214181836 135213.416603544 564018.907688978
 -57.1931682104376 135206.049710083 564020.674134145
 -53.4892589064788 135199.117212754 564022.336298653
 -50.0093137589864 135192.578999427 564023.903821950
 -46.7363594963025 135186.418387597 564025.380722576
 -43.6437483901703 135180.604380033 564026.774448405
 -40.7267259216082 135175.124791472 564028.087934408
 -37.9600272517128 135169.955582740 564029.326956318
 -35.3475974321844 135165.084247613 564030.494522134
 -32.8638500818133 135160.493901986 564031.594689640
 -30.5183095147285 135156.168383023 564032.631340291
 -28.2854201834043 135152.099039430 564033.606556534
 -26.1769575080476 135148.263807003 564034.525631826
 -24.1693756703472 135144.663212887 564035.388447318
 -22.2729290554164 135141.268210269 564036.201967956
 -20.4692060548439 135138.088570348 564036.963858366
 -18.7628435516014 135135.088611468 564037.682671934
 -17.1442272486509 135132.286000097 564038.354180337
 -15.6083912601600 135129.640449581 564038.988039253
 -14.1579662075503 135127.174468516 564039.578859239
 -12.7751857231141 135124.846954790 564040.136490515
 -11.4772987112261 135122.680521321 564040.655517849
 -10.2321276053248 135120.638579806 564041.144709399
 -9.07198008718922 135118.737813345 564041.600069913
 -7.95100721138657 135116.952429755 564042.027780623
 -6.91437857209763 135115.286627055 564042.426836741
 -5.90620544902814 135113.731691779 564042.799327709
 -4.97931310958829 135112.273373639 564043.148667735
 -4.07442821042799 135110.925085867 564043.471645440
 -3.24394376361167 135109.650079146 564043.777064305