# OOMMF OVF 2.0
#
# Segment count: 1
#
# Begin: Segment
# Begin: Header
#
# Title: Oxs_TimeDriver::Magnetization
# Desc: Oxs vector field output
# Desc:  MIF source file: C:/Users/Victor H. González/Documents/GitHub/Intro-to-magnetism-in-python/domain_wall_conversion_thin_film/drive-40/domain_wall_conversion_thin_film.mif
# Desc:  Iteration: 1238, State id: 8705
# Desc:  Stage: 102, Stage iteration: 11
# Desc:  Stage simulation time: 2e-12 s
# Desc:  Total simulation time: 2.06e-10 s
# meshunit: m
# meshtype: rectangular
# xbase: 1.0000000000000001e-09
# ybase: 1.0000000000000001e-09
# zbase: 1.0000000000000001e-09
# xnodes: 225
# ynodes: 100
# znodes: 1
# xstepsize: 2.0000000000000001e-09
# ystepsize: 2.0000000000000001e-09
# zstepsize: 2.0000000000000001e-09
# xmin: 0
# ymin: 0
# zmin: 0
# xmax: 4.5000000000000003e-07
# ymax: 2.0000000000000002e-07
# zmax: 2.0000000000000001e-09
# valuedim: 3
# valuelabels: Magnetization_x Magnetization_y Magnetization_z
# valueunits: A/m A/m A/m
#
# End: Header
#
# Begin: Data Text
 0.000000000000000 -0.000000000000000 -0.000000000000000
 -0.000000000000000 0.000000000000000 0.000000000000000
 0.000000000000000 0.000000000000000 -0.000000000000000
 0.000000000000000 0.000000000000000 0.000000000000000
 0.000000000000000 0.000000000000000 0.000000000000000
 0.000000000000000 -0.000000000000000 0.000000000000000
 -0.000000000000000 -0.000000000000000 0.000000000000000
 -0.000000000000000 -0.000000000000000 -0.000000000000000
 -0.000000000000000 0.000000000000000 -0.000000000000000
 -0.000000000000000 -0.000000000000000 -0.000000000000000
 0.000000000000000 -0.000000000000000 -0.000000000000000
 0.000000000000000 0.000000000000000 0.000000000000000
 0.000000000000000 0.000000000000000 -0.000000000000000
 0.000000000000000 0.000000000000000 0.000000000000000
 0.000000000000000 0.000000000000000 -0.000000000000000
 -0.000000000000000 0.000000000000000 -0.000000000000000
 0.000000000000000 -0.000000000000000 -0.000000000000000
 -0.000000000000000 -0.000000000000000 0.000000000000000
 0.000000000000000 -0.000000000000000 -0.000000000000000
 -0.000000000000000 -0.000000000000000 -0.000000000000000
 0.000000000000000 -0.000000000000000 0.000000000000000
 0.000000000000000 -0.000000000000000 0.000000000000000
 0.000000000000000 0.000000000000000 -0.000000000000000
 -0.000000000000000 -0.000000000000000 0.000000000000000
 0.000000000000000 -0.000000000000000 0.000000000000000
 250135.784974946 337786.810365601 399665.059541114
 186874.080246007 336653.810806092 433753.720216836
 135784.438614196 331181.903063572 456378.278748473
 96637.3012554259 323546.642591781 471570.569558422
 67626.8783560823 315309.351208876 482085.696079078
 46616.6879364783 307390.060842635 489630.712783618
 31658.4697190851 300250.934816910 495224.310223779
 21157.6460309544 294074.006178571 499472.554705976
 13877.3316129021 288875.720534151 502750.671559154
 8891.02308446324 284591.764364824 505300.383301089
 5519.31888315477 281113.487139167 507291.577367025
 3270.92668574895 278326.534441071 508845.400160637
 1797.90789925643 276112.465374515 510057.520277854
 851.131394033116 274370.728719052 510999.000779382
 262.069876782350 273006.527772545 511729.779388456
 -93.4537943148592 271946.734103105 512293.826897263
 -290.955822973305 271124.486413631 512729.390820981
 -393.588242825949 270490.662224813 513063.979185323
 -429.721203818156 270002.160770676 513321.194301242
 -434.181000708491 269626.194014122 513518.769850059
 -412.001393298433 269338.259248382 513669.867093547
 -385.203140255307 269114.531650709 513787.135371217
 -348.217638819549 268945.054554551 513875.895888419
 -316.506022253626 268809.297383826 513946.944211123
 -281.472461458176 268708.932242596 513999.446017501
 -253.279190735852 268623.093505020 514044.326381923
 -225.614429981106 268562.653250681 514075.918884637
 -202.046119057879 268504.867327178 514106.112975698
 -182.740617849147 268467.149248540 514125.817655784
 -162.398839558952 268425.371535853 514147.637884738
 -150.883508749501 268400.084027061 514160.842663493
 -132.003153919487 268368.136526027 514177.523694604
 -127.157329579571 268348.889563314 514187.570154268
 -108.524354145460 268324.000859719 514200.562801226
 -108.898338636605 268306.633158306 514209.625293427
 -90.2024402214885 268287.864651841 514219.421593618
 -93.9846239211754 268269.615943881 514228.941550564
 -75.8744696969495 268256.804075038 514235.628200256
 -80.8656336693847 268235.995892258 514246.481726845
 -64.8008985752245 268229.010968373 514250.127346384
 -68.5175348562208 268204.994412929 514262.653006524
 -56.4515477893691 268203.232267013 514263.573486155
 -56.3938738672311 268176.420934319 514277.555483992
 -50.3200786536370 268178.513266474 514276.465036145
 -44.3776294085549 268150.364124634 514291.143468807
 -45.8007143736447 268154.122907876 514289.183504575
 -32.7193343622885 268126.971636318 514303.340462204
 -42.1449837074635 268129.577992201 514301.980969863
 -21.9452594999915 268106.285421420 514314.125059709
 -38.5031244000668 268104.702142345 514314.949429505
 -12.7282513609214 268088.125688935 514323.591431100
 -34.0384854223340 268079.667285333 514327.999266584
 -5.72594318052196 268072.029828498 514331.981108352
 -28.0854742388905 268054.979555451 514340.866689332
 -1.40429855406951 268057.256827912 514339.680619650
 -20.3083473863306 268031.391399217 514353.159621063
 0.122918184843874 268042.863840190 514347.181526578
 -10.8153099028375 268009.744885951 514364.439409643
 -0.800368955347395 268027.849367900 514355.005771867
 -0.191665750763800 267990.771788489 514374.325016494
 -3.35998942245550 268011.338708003 514363.609047777
 10.5662999308338 267974.888576857 514382.599803468
 -6.37406148311127 267992.767975646 514373.284951817
 20.2142584052569 267962.027673967 514389.299379604
 -8.50339282314933 267972.012896806 514384.097957670
 27.4976702388340 267951.542351657 514394.761049572
 -8.52839333486704 267949.415866585 514395.869408010
 31.4252327070912 267942.213742683 514399.620049554
 -5.62620555767703 267925.690216688 514408.227471390
 31.5236915456001 267932.373844136 514404.745363515
 0.422910157941398 267901.715357578 514420.713918372
 28.0112188026016 267920.135581959 514411.119791472
 9.15398410757498 267878.266781346 514432.924784589
 21.8327239609302 267903.691162127 514419.684484409
 19.4846389731839 267855.740884517 514444.653675743
 14.5278534167118 267881.612188948 514431.182608512
 29.9235709688138 267833.935212462 514456.006139677
 7.94741699567086 267853.073752579 514446.042669330
 38.8847682191210 267811.935276413 514467.458457264
 3.88067897971576 267817.939851179 514464.334117352
 45.0484869876338 267788.143452039 514479.842362306
 3.68459919949083 267776.686044689 514485.807770582
 47.6917279688423 267760.462371326 514494.249254735
 8.00586163914856 267730.181865425 514510.009284768
 46.9054967911251 267726.612817748 514511.864381191
 16.6611925566286 267679.392974876 514536.434374677
 43.6336288028514 267684.529755100 514533.760433558
 28.7033812754987 267625.082159566 514564.684539467
 39.5103860818714 267632.753433310 514560.693921169
 42.6599778678608 267567.589044074 514594.581659454
 36.5291885172232 267570.729279727 514592.949328237
 56.8936772757535 267506.754006861 514626.207381457
 36.6222050295949 267498.954413811 514630.263438066
 70.0020378912777 267442.023879143 514659.847824894
 41.2535767680011 267418.951775068 514671.839650924
 81.1575892433533 267372.737597530 514695.844750129
 51.1227179884516 267333.100096033 514716.437448341
 90.2970163833644 267298.545499537 514734.377538824
 66.0433578737972 267244.384780810 514762.502948108
 98.1031670925287 267219.877406600 514775.220357944
 85.0183618469641 267156.150777362 514808.298178751
 105.778589243472 267138.353469980 514817.529728969
 106.481052755495 267071.928976387 514851.991755511
 114.668085573503 267057.035382705 514859.715557385
 128.632498568671 266995.374751370 514891.690858433
 125.831907381895 266980.444968255 514899.433065219
 149.781935058348 266930.310517410 514925.418767079
 139.686359712351 266914.325988580 514933.707451535
 168.601296114901 266880.818025881 514951.066163999
 155.809431739351 266865.180210352 514959.174415523
 184.235081355538 266851.295256299 514966.360335770
 172.961275012975 266839.653968782 514972.396497344
 196.255327815246 266846.387895863 514968.898818926
 189.307884759247 266843.873070574 514970.204543156
 204.502701448321 266870.730204212 514956.281191826
 202.780638100500 266882.817230017 514950.017717624
 208.890681892036 266928.480138757 514926.347020130
 211.472137528600 266959.797612053 514910.110347881
 209.257381818715 267022.697335018 514877.495448460
 213.969932030946 267076.069040005 514849.810685609
 205.326286172641 267154.673556553 514809.030843485
 209.561567535024 267230.589476562 514769.626271751
 196.792211921966 267323.365752018 514721.458068185
 198.292037179529 267419.941096455 514671.289061510
 183.498769312222 267525.086414006 514616.648066676
 180.897117704876 267638.441116370 514557.705328598
 165.636652389883 267753.566390983 514497.813648814
 158.657253856323 267878.476126757 514432.791388616
 143.881596407825 268000.426411473 514369.274686343
 133.213982724468 268131.072515891 514301.186276595
 119.410813205371 268255.995500495 514236.041734821
 106.375185565880 268386.665626862 514167.858192259
 93.7797273031771 268510.328044516 514103.292090986
 79.9221039735559 268635.970019194 514037.653508285
 68.6901559692929 268754.225833256 513975.837348830
 55.4289598279827 268870.811501964 513914.860312392
 45.7172839828252 268980.081205342 513857.678569366
 34.1125600236578 269084.780291806 513802.860883086
 26.0724104165568 269182.415108921 513751.716996020
 16.7344305678515 269273.606038148 513703.927190722
 10.4600662525679 269358.065437371 513659.646531070
 3.57336056282343 269435.222639310 513619.178758481
 -0.947779340612087 269506.058281981 513582.013458816
 -5.52875169476578 269569.558485035 513548.686209610
 -8.43482644842894 269627.247487596 513518.400197224
 -11.0631773534063 269678.135179835 513491.677910687
 -12.5998973630010 269723.828930920 513467.677607936
 -13.7210120910019 269763.575818772 513446.796633501
 -14.1983129974907 269798.829334880 513428.272972901
 -14.2608967289390 269829.115119524 513412.357107268
 -14.0021865172059 269855.645227025 513398.413070244
 -13.4015165597660 269878.177959283 513386.568661254
 -12.7006059326626 269897.676825404 513376.317999715
 -11.7509607690898 269914.061602571 513367.703708676
 -10.8448095829270 269928.072898684 513360.336745636
 -9.77378398360363 269939.729188110 513354.207648407
 -8.83223973751022 269949.581062560 513349.027082102
 -7.78881922006049 269957.702667849 513344.756191812
 -6.91783579220610 269964.485065654 513341.189420233
 -5.98714509058870 269970.033190962 513338.271652352
 -5.23992727791073 269974.605420309 513335.867050698
 -4.45922707701981 269978.324253142 513333.911225023
 -3.84962903029752 269981.340169937 513332.325053883
 -3.22156823670225 269983.785382821 513331.039018668
 -2.73471497604018 269985.726723329 513330.017978879
 -2.23437891387504 269987.299906321 513329.190563231
 -1.82957105731679 269988.512624321 513328.552729691
 -1.40076994686084 269989.499124409 513328.033873651
 -1.00001901273405 269990.233899507 513327.647412342
 -0.532738537066331 269990.849623888 513327.323565663
 0.0162990836198540 269991.319290503 513327.076538705
 0.741955485971094 269991.788848917 513326.829567296
 1.74754909085943 269992.280409340 513326.571021129
 3.17413098937356 269993.006357199 513326.189189804
 5.25252806278793 269994.140951968 513325.592410918
 8.23992322877520 269996.106821765 513324.558377245
 12.5532675725613 269999.462880068 513322.793071660
 18.6441860601722 270005.190047592 513319.780448560
 27.1548684978803 270014.759219030 513314.746589752
 38.7283317889230 270030.497320799 513306.466954000
 54.0790099862054 270055.942536788 513293.079026035
 73.6365549475193 270096.454220958 513271.760371563
 97.2807969222747 270160.046037201 513238.287797806
 123.462777668341 270258.520201890 513186.434948574
 147.974088535921 270409.090464440 513107.105678594
 161.567805348049 270636.449660021 512987.218175329
 146.197294735094 270975.592458308 512808.158006696
 68.7103331265110 271475.239708204 512543.841543592
 -129.167841569859 272202.111051751 512158.172886697
 -546.718502497416 273245.627528220 511601.923506537
 -1348.92683641635 274722.801153874 510808.734187817
 -2804.35434125785 276782.059727585 509689.932223195
 -5342.40744933674 279604.235232442 508126.884077911
 -9638.37948906152 283396.974954603 505957.761307607
 -16737.1177415792 288376.246737174 502950.304908433
 -28226.4656293448 294722.811289521 498740.143906300
 -46464.0889319373 302490.423344867 492687.154515286
 -74823.5054540105 311420.134975214 483548.283590784
 -117791.130703592 320581.783867202 468777.739851299
 -180329.745697303 327783.225368382 443214.778616245
 -0.000000000000000 -0.000000000000000 -0.000000000000000
 -0.000000000000000 -0.000000000000000 -0.000000000000000
 0.000000000000000 0.000000000000000 -0.000000000000000
 0.000000000000000 -0.000000000000000 0.000000000000000
 -0.000000000000000 -0.000000000000000 -0.000000000000000
 -0.000000000000000 -0.000000000000000 -0.000000000000000
 0.000000000000000 0.000000000000000 0.000000000000000
 0.000000000000000 0.000000000000000 -0.000000000000000
 0.000000000000000 0.000000000000000 -0.000000000000000
 0.000000000000000 0.000000000000000 -0.000000000000000
 -0.000000000000000 0.000000000000000 0.000000000000000
 -0.000000000000000 -0.000000000000000 0.000000000000000
 0.000000000000000 -0.000000000000000 -0.000000000000000
 -0.000000000000000 -0.000000000000000 -0.000000000000000
 -0.000000000000000 0.000000000000000 0.000000000000000
 -0.000000000000000 0.000000000000000 0.000000000000000
 -0.000000000000000 -0.000000000000000 -0.000000000000000
 0.000000000000000 0.000000000000000 -0.000000000000000
 0.000000000000000 -0.000000000000000 0.000000000000000
 -0.000000000000000 -0.000000000000000 -0.000000000000000
 -0.000000000000000 0.000000000000000 0.000000000000000
 0.000000000000000 -0.000000000000000 -0.000000000000000
 0.000000000000000 0.000000000000000 -0.000000000000000
 0.000000000000000 -0.000000000000000 0.000000000000000
 -0.000000000000000 0.000000000000000 0.000000000000000
 248125.042103518 272542.303826058 447833.290529314
 182213.171374036 269359.958789121 480253.654623199
 130843.150928488 261527.102317535 500882.865157612
 92287.0545852455 251974.522468562 514190.567380150
 64103.6153435909 242324.908117023 523038.588830650
 43890.6503162781 233398.951908303 529148.882700247
 29609.6732216124 225555.670131640 533524.045309277
 19644.6311211295 218882.727300349 536753.612151493
 12773.5873044350 213340.983739320 539186.850845341
 8091.35213199188 208810.261692687 541047.876469826
 4941.01944195022 205163.065906982 542479.218693695
 2854.70202056225 202249.295547391 543587.226787898
 1494.25173485871 199951.216826256 544442.171494322
 633.305679471191 198141.612893354 545105.035900364
 97.7955200283677 196735.147881282 545614.581938722
 -209.854780834189 195637.800979794 546008.980501934
 -385.439489682182 194793.352807477 546310.718491246
 -457.965026324062 194138.977973019 546543.545840244
 -489.283097522021 193636.695346100 546721.675825545
 -471.650238402131 193251.266191653 546858.048913404
 -453.629747793552 192951.262782899 546963.988220922
 -408.898287129732 192726.760912764 547043.168708161
 -379.706318930815 192542.977627459 547107.903058861
 -333.788808473788 192414.137021243 547153.258657390
 -305.856681483076 192295.217071084 547195.080335409
 -268.741269012041 192223.095910679 547220.439289912
 -243.523036543110 192139.577407148 547249.781626574
 -218.830805135883 192100.689496607 547263.444063283
 -193.773742633435 192036.830185592 547285.865251431
 -182.637219146376 192016.308319144 547293.069555183
 -154.539569374921 191964.946529289 547311.095649932
 -156.798887095767 191952.502851658 547315.459367898
 -123.518089321229 191911.737846808 547329.763140924
 -137.759006228174 191899.541776705 547334.035930844
 -99.1126126533237 191870.410616493 547344.257032581
 -122.360248352614 191852.270512451 547350.610968132
 -80.5094552552494 191836.933151275 547355.994392444
 -108.041008610052 191808.323550357 547366.015883286
 -67.4014133849796 191808.533915544 547365.948679875
 -92.9415583551008 191767.083288411 547380.468348042
 -59.5975906141422 191782.923721591 547374.923262772
 -76.0093804505140 191729.009030880 547393.808257465
 -56.6483544337297 191757.996544660 547383.656635949
 -57.0890515601184 191695.120213814 547405.679206063
 -57.5707999322304 191731.849005067 547392.815775564
 -36.9418301170004 191666.532275872 547415.691262722
 -60.7380131431277 191702.993665377 547402.921558358
 -17.1390769570499 191644.024864219 547423.572236431
 -63.9704449985476 191670.649138982 547414.247317717
 0.202031008929965 191627.675646370 547429.295823971
 -64.8303494640726 191634.991081437 547426.731161571
 12.8325889782328 191616.620649222 547433.165351075
 -61.0727619008440 191597.259254263 547439.938729695
 18.8828760060058 191609.004389441 547435.831016133
 -51.1599711145282 191559.646961851 547453.102136164
 17.3763556851807 191602.161086369 547438.226254886
 -34.7157406226067 191524.950490878 547465.242855000
 8.62756589295868 191593.025011478 547441.423982983
 -12.7928469175688 191496.018338460 547475.364557036
 -5.59440587596500 191578.711058979 547446.433395710
 12.1428949002710 191475.097939938 547482.681663486
 -22.2202498480036 191557.149805340 547453.977850846
 36.5520882833460 191463.216530237 547486.835805063
 -37.3681451580923 191527.623645393 547464.307498097
 56.4523354207681 191459.742868778 547488.048886690
 -47.0935704601258 191491.050174683 547477.100420824
 68.2343568443097 191462.254174196 547487.169320531
 -48.2488959979990 191449.904273991 547491.490185486
 69.4989744349291 191466.779092757 547485.586726937
 -39.2526107262348 191407.753646368 547506.228552044
 59.7204692126090 191468.408797331 547485.017937553
 -20.5715408784389 191368.481122294 547519.957636027
 40.5552889560671 191462.177043853 547487.199043865
 5.22464890139289 191335.352258302 547531.536031391
 15.6793053932490 191444.027747340 547493.546988488
 33.8838487619811 191310.135692514 547540.346306276
 -9.85532495754308 191411.642731112 547504.870233910
 60.3055308733358 191292.485687276 547546.510611498
 -30.6270385622522 191364.915282377 547521.203480699
 79.6265139665587 191279.751545992 547550.956814178
 -41.9936940297172 191305.931687996 547541.814601877
 88.3241477094020 191267.294030342 547555.307191115
 -41.1116967068053 191238.444164890 547565.389504506
 85.0774015711098 191249.277227700 547561.600846624
 -27.5752704439798 191166.949287466 547590.354863677
 71.1630632426597 191219.787114202 547571.902083935
 -3.51154602319975 191095.589608862 547615.262405743
 50.2643216362885 191174.035950898 547587.879204555
 26.9060261186230 191027.147208336 547639.140589413
 27.7125485595026 191109.375763951 547610.450710290
 58.4250415768512 190962.385621368 547661.723935780
 9.33112499262041 191025.882067980 547639.582474716
 85.9414408636782 190899.923065129 547683.496179862
 0.158346606126310 190926.374861873 547674.282198898
 105.692749092256 190836.698501376 547705.526112470
 3.36196332618596 190815.889395896 547712.786360470
 116.119389525265 190768.947813949 547729.125632594
 19.6100317928523 190700.753191075 547752.884381090
 118.170181308081 190693.474317969 547755.406078616
 47.0443186159992 190587.527208067 547792.289339259
 114.967443066380 190608.911891197 547784.838682253
 81.8448992848999 190482.098230842 547828.954651895
 110.917440194178 190516.667420069 547816.928482930
 119.219584592836 190389.156374648 547861.255174740
 110.505018955667 190421.300574155 547850.085403195
 154.541541908477 190312.169204621 547887.994365220
 117.099753660878 190330.237633395 547881.727136490
 184.325185689628 190253.806069630 547908.254455293
 132.094753740353 190252.884326821 547908.589598942
 206.786755541233 190216.619314262 547921.157627529
 154.597667977513 190199.350398491 547927.169619789
 221.868398274478 190203.699365576 547925.636854184
 181.726959099328 190179.079993826 547934.197242711
 230.773307233616 190219.019874420 547920.314664181
 209.388346446043 190199.672047505 547927.039768565
 235.209221340578 190267.281778030 547903.555529093
 233.275182410308 190266.081073049 547903.973316304
 236.616982111853 190353.225178293 547873.702304305
 249.796120991131 190380.250972472 547864.305865564
 235.643054881402 190480.555645197 547829.446446106
 256.694306695635 190541.110555586 547808.378264040
 232.009041471201 190650.769857034 547770.234792586
 253.255069770073 190744.799093063 547737.489570339
 224.778934127932 190862.218487509 547696.597605332
 240.145649185774 190985.009177621 547653.785342063
 212.883988519672 191109.692630137 547610.299449546
 219.030991136289 191253.404999906 547560.121905683
 195.686826716261 191384.678801057 547514.261391319
 192.132023540637 191540.142378427 547459.895282693
 173.375301123689 191676.242785813 547412.265018349
 161.846374453680 191834.534598756 547356.817022525
 147.061579989627 191972.336174838 547308.505795832
 130.476792128182 192125.863454466 547254.635035358
 118.582092398708 192261.225359101 547207.097141205
 100.053780069485 192404.257309842 547156.825561273
 90.0983887716543 192532.745227642 547111.628369739
 72.2188022140725 192661.496571405 547066.305417644
 63.6496703133760 192779.164873036 547024.852762263
 48.1465967792214 192891.598292400 546985.218255583
 40.7950276247096 192995.578411044 546948.539672200
 28.5067799329595 193091.080160697 546914.832446277
 22.4255922945347 193179.853045447 546883.482905118
 13.4757425869038 193258.885021142 546855.559703648
 8.75633131566283 193332.246130298 546829.628430593
 2.80394926200376 193396.025094584 546807.075182604
 -0.546869664482632 193454.833701600 546786.272063580
 -4.07151268947148 193505.053743014 546768.501433044
 -6.17283080711570 193550.883699867 546752.279721719
 -7.89241543623778 193589.483400583 546738.613831514
 -8.96674382736265 193624.274693773 546726.293650587
 -9.44999112282449 193653.248212533 546716.031745396
 -9.77006793700127 193679.021189757 546706.901964411
 -9.48204748859431 193700.273765275 546699.372464748
 -9.31631373890982 193718.930399011 546692.761904042
 -8.60725472362623 193734.178608625 546687.358519252
 -8.18118940292192 193747.388112535 546682.677183610
 -7.29655289243936 193758.102694814 546678.879770260
 -6.77477690092981 193767.254475883 546675.636046624
 -5.87415280186073 193774.640013975 546673.018222912
 -5.35995802318121 193780.842759341 546670.819553001
 -4.53719230749445 193785.845712184 546669.046115680
 -4.08249446856111 193789.953363309 546667.590002169
 -3.38285911505397 193793.288832241 546666.407594375
 -3.00110624921483 193795.938895448 546665.468141737
 -2.43290580831837 193798.127380011 546664.692309721
 -2.10819067446956 193799.782547545 546664.105534724
 -1.64585061760343 193801.190866806 546663.606266138
 -1.33140179160922 193802.181129133 546663.255201790
 -0.904404384925210 193803.067491943 546662.940969932
 -0.501026692714944 193803.638796611 546662.738431057
 0.0426660874883278 193804.213732182 546662.534603980
 0.743974723313513 193804.606409018 546662.395390511
 1.72048119786526 193805.146993636 546662.203738118
 3.15703791904581 193805.765372117 546661.984500990
 5.20514967511472 193806.878114842 546661.589988071
 8.25280024719768 193808.698704077 546660.944497157
 12.5932622357740 193811.954194221 546659.790228645
 18.8701698112151 193817.506182221 546657.821622650
 27.6163704738264 193826.938107695 546654.477070418
 39.7262439486152 193842.573004955 546648.932416999
 55.8972294136286 193868.070394842 546639.888918546
 76.9150086666750 193908.973808724 546625.378079475
 102.856598153846 193973.584158247 546602.449746911
 132.763273623495 194074.275404020 546566.700412967
 163.049381930039 194229.069141624 546511.703548312
 185.563235246163 194464.101992975 546428.109271798
 183.677586004449 194816.458020778 546302.584605622
 126.327961241180 195338.230135457 546116.251258643
 -41.9329062600390 196101.039637085 545842.816655935
 -416.541899960347 197201.689793778 545445.982692442
 -1157.38405635739 198767.736171723 544876.176318358
 -2526.50978095051 200962.695646149 544065.815602267
 -4945.31100961582 203988.344582431 542922.001003401
 -9080.25085778574 208081.153754973 541313.017113351
 -15968.7668148030 213496.144556645 539040.253363200
 -27200.3614778516 220466.720731585 535774.733806416
 -45166.2339766508 229116.227168520 530910.317997710
 -73375.2484857192 239267.444248817 523227.639782435
 -116766.670426968 250018.903549642 510153.008954406
 -181744.114577630 258751.127527617 486227.241955427
 -0.000000000000000 0.000000000000000 -0.000000000000000
 -0.000000000000000 -0.000000000000000 0.000000000000000
 -0.000000000000000 -0.000000000000000 -0.000000000000000
 0.000000000000000 0.000000000000000 0.000000000000000
 0.000000000000000 -0.000000000000000 -0.000000000000000
 -0.000000000000000 0.000000000000000 0.000000000000000
 0.000000000000000 0.000000000000000 -0.000000000000000
 -0.000000000000000 0.000000000000000 0.000000000000000
 0.000000000000000 0.000000000000000 0.000000000000000
 0.000000000000000 -0.000000000000000 -0.000000000000000
 -0.000000000000000 0.000000000000000 0.000000000000000
 -0.000000000000000 0.000000000000000 0.000000000000000
 -0.000000000000000 0.000000000000000 -0.000000000000000
 -0.000000000000000 -0.000000000000000 0.000000000000000
 -0.000000000000000 0.000000000000000 0.000000000000000
 0.000000000000000 0.000000000000000 -0.000000000000000
 -0.000000000000000 0.000000000000000 -0.000000000000000
 -0.000000000000000 0.000000000000000 0.000000000000000
 0.000000000000000 -0.000000000000000 0.000000000000000
 0.000000000000000 0.000000000000000 -0.000000000000000
 -0.000000000000000 -0.000000000000000 0.000000000000000
 -0.000000000000000 0.000000000000000 -0.000000000000000
 -0.000000000000000 -0.000000000000000 -0.000000000000000
 -0.000000000000000 0.000000000000000 -0.000000000000000
 0.000000000000000 -0.000000000000000 0.000000000000000
 244524.068965137 219648.942656933 477872.704479367
 176224.870367598 216078.331291269 508581.310913313
 124488.602480686 207230.068806641 527217.494431663
 86587.7813275734 196669.468717060 538724.118820866
 59413.4752376830 186232.139436700 546065.590566748
 40224.5850394488 176770.033635473 550939.504816017
 26829.7536341161 168586.885689350 554309.143252661
 17579.3855872315 161726.977883125 556718.375686637
 11254.9442713391 156083.342782942 558490.211494483
 6980.66684842772 151521.092408813 559814.816564899
 4130.44081176453 147861.480132581 560820.757597027
 2257.15908148563 144968.020361935 561586.305304200
 1056.91411090370 142680.603752493 562175.353644561
 299.863205478184 140900.916497422 562624.956620523
 -146.266680688726 139505.693793233 562972.592588064
 -409.366896148826 138433.184097876 563237.148951726
 -528.466684284650 137596.567499878 563442.015947706
 -589.278857647846 136957.146312967 563597.722515125
 -578.175105051824 136461.968738546 563717.834383078
 -567.184529613552 136079.561557134 563810.279462984
 -512.959443605047 135790.374471542 563880.050253144
 -483.926818343395 135555.557350604 563936.571509776
 -423.405489458576 135390.339695364 563976.308584824
 -394.590122096025 135237.075835389 564013.100573142
 -342.873846350305 135146.888177718 564034.751636284
 -316.831961176147 135036.859583334 564061.119180696
 -280.338851019119 134992.140551286 564071.842409733
 -253.420548965967 134904.750437399 564092.761952720
 -235.249012349599 134886.523654514 564097.128510953
 -202.322278226824 134812.639105579 564114.803389420
 -203.873991054503 134807.209109775 564116.100468182
 -160.902856192258 134745.114458748 564130.949549632
 -181.795931774818 134741.245335116 564131.867346440
 -127.400430870504 134693.733484093 564143.228204723
 -164.794720985895 134681.614218294 564146.111955276
 -101.155367050627 134653.557191287 564152.824422004
 -149.176162108057 134625.024341016 564159.623305013
 -82.2849710767161 134621.119019910 564160.568936726
 -131.989586814767 134570.658298228 564172.598150540
 -71.1336993041668 134593.334903848 564167.199630975
 -111.273990878306 134519.371477177 564184.833468150
 -67.6844618067196 134567.068528797 564173.465776600
 -86.3146390397243 134473.039942362 564195.882720215
 -71.0659300169957 134539.168864835 564180.119279998
 -57.8198690133839 134433.907045233 564205.212040279
 -79.2697353611121 134506.831778663 564187.828582978
 -27.9122210266437 134403.897360548 564212.363915576
 -89.1647997140387 134468.132338781 564197.051955218
 0.145003032553662 134383.955719201 564217.114633400
 -96.8475540601872 134422.556835779 564207.910999379
 22.5064004812774 134373.524788405 564219.598498140
 -98.2958761692089 134371.358584758 564220.106279462
 35.5330331943565 134370.291399574 564220.367876415
 -90.2139528308045 134317.587830268 564232.910650292
 36.6788997071681 134370.306504592 564220.364205796
 -70.8865744203376 134265.710648549 564245.260431254
 25.2854927905221 134368.518658907 564220.790607768
 -40.8276595279405 134220.827361796 564255.941781225
 3.07515754296432 134359.666934700 564222.899120321
 -3.02508410782285 134187.607584412 564263.844279979
 -25.8325239627874 134339.376556617 564227.729945153
 37.3450598817597 134169.149957000 564268.232142447
 -55.4674160591699 134305.217840662 564235.859711290
 73.7486314584911 134166.024814147 564268.971632066
 -79.0727075996728 134257.456256572 564247.223464167
 99.5501625337230 134175.750699400 564266.655061255
 -90.4973674386101 134199.259400749 564261.065984990
 109.457343920551 134192.885830582 564262.578425638
 -85.6166760344279 134136.236247111 564276.051941994
 100.834988042363 134209.791397416 564258.559284099