# OOMMF OVF 2.0
#
# Segment count: 1
#
# Begin: Segment
# Begin: Header
#
# Title: Oxs_TimeDriver::Magnetization
# Desc: Oxs vector field output
# Desc:  MIF source file: C:/Users/Victor H. González/Documents/GitHub/Intro-to-magnetism-in-python/domain_wall_conversion_thin_film/drive-40/domain_wall_conversion_thin_film.mif
# Desc:  Iteration: 1862, State id: 13079
# Desc:  Stage: 154, Stage iteration: 11
# Desc:  Stage simulation time: 2e-12 s
# Desc:  Total simulation time: 3.1e-10 s
# meshunit: m
# meshtype: rectangular
# xbase: 1.0000000000000001e-09
# ybase: 1.0000000000000001e-09
# zbase: 1.0000000000000001e-09
# xnodes: 225
# ynodes: 100
# znodes: 1
# xstepsize: 2.0000000000000001e-09
# ystepsize: 2.0000000000000001e-09
# zstepsize: 2.0000000000000001e-09
# xmin: 0
# ymin: 0
# zmin: 0
# xmax: 4.5000000000000003e-07
# ymax: 2.0000000000000002e-07
# zmax: 2.0000000000000001e-09
# valuedim: 3
# valuelabels: Magnetization_x Magnetization_y Magnetization_z
# valueunits: A/m A/m A/m
#
# End: Header
#
# Begin: Data Text
 0.000000000000000 -0.000000000000000 -0.000000000000000
 -0.000000000000000 0.000000000000000 0.000000000000000
 0.000000000000000 0.000000000000000 -0.000000000000000
 0.000000000000000 0.000000000000000 0.000000000000000
 0.000000000000000 0.000000000000000 0.000000000000000
 0.000000000000000 -0.000000000000000 0.000000000000000
 -0.000000000000000 -0.000000000000000 0.000000000000000
 -0.000000000000000 -0.000000000000000 -0.000000000000000
 -0.000000000000000 0.000000000000000 -0.000000000000000
 -0.000000000000000 -0.000000000000000 -0.000000000000000
 0.000000000000000 -0.000000000000000 -0.000000000000000
 0.000000000000000 0.000000000000000 0.000000000000000
 0.000000000000000 0.000000000000000 -0.000000000000000
 0.000000000000000 0.000000000000000 0.000000000000000
 0.000000000000000 0.000000000000000 -0.000000000000000
 -0.000000000000000 0.000000000000000 -0.000000000000000
 0.000000000000000 -0.000000000000000 -0.000000000000000
 -0.000000000000000 -0.000000000000000 0.000000000000000
 0.000000000000000 -0.000000000000000 -0.000000000000000
 -0.000000000000000 -0.000000000000000 -0.000000000000000
 0.000000000000000 -0.000000000000000 0.000000000000000
 0.000000000000000 -0.000000000000000 0.000000000000000
 0.000000000000000 0.000000000000000 -0.000000000000000
 -0.000000000000000 -0.000000000000000 0.000000000000000
 0.000000000000000 -0.000000000000000 0.000000000000000
 250241.161627525 337841.055667123 399553.228159943
 186988.579385589 336709.127463369 433661.428607867
 135900.684256078 331239.416118990 456301.932088700
 96751.0689819202 323607.065046795 471505.777379933
 67736.8457117271 315374.060375080 482027.926344067
 46721.6997234084 307459.613326311 489577.030658293
 31758.8434588354 300327.087195795 495171.704117518
 21252.9085315618 294156.548713898 499419.902214236
 13967.8697684960 288966.519733673 502695.980774801
 8976.77869293620 284689.623056733 505243.739167655
 5600.21545107644 281220.402744573 507231.429100250
 3347.65110284442 278440.488918562 508782.554106256
 1869.53798232852 276235.620546990 509990.575176397
 919.504194359151 274500.620076264 510929.118459482
 325.031984930296 273145.321508575 511655.672979578
 -32.5909041813653 272092.043405498 512216.671783781
 -235.875350515433 271278.058045905 512648.183051166
 -339.362330388756 270650.854616972 512979.531490596
 -381.624940936642 270169.641033148 513233.104375025
 -385.828405080632 269800.845950766 513427.068492393
 -369.941177762776 269518.876380976 513575.153622000
 -342.165191348826 269303.320045233 513688.236906002
 -311.225926070080 269138.174535751 513774.801003306
 -278.462978560533 269011.922782743 513840.936340324
 -248.581408334464 268914.083735274 513892.161621582
 -220.124735530705 268839.187249543 513931.360148519
 -195.886233950766 268779.555956723 513962.558877872
 -173.811891869464 268733.914639657 513986.432614590
 -155.325386763663 268695.741204495 514006.395419932
 -139.142162471420 268666.671277173 514021.595250921
 -125.107284190429 268640.530946629 514035.260931466
 -113.675554062662 268620.810903472 514045.569018380
 -102.627743572476 268601.556791110 514055.632356011
 -94.8438397017478 268587.061174079 514063.207761962
 -85.6024063191643 268572.006841501 514071.074670961
 -80.5568793640987 268560.330327223 514077.175611913
 -72.3458343131855 268548.172789945 514083.527899175
 -69.2844670736692 268537.861403424 514088.914675796
 -61.7287825247805 268528.037194286 514094.047261921
 -59.9660770384883 268518.186182912 514099.192853974
 -53.0408968310782 268510.475353739 514103.220970238
 -51.8924955528393 268500.542871494 514108.408591887
 -45.8477551048142 268494.815705765 514111.400220916
 -44.6090525526985 268484.555397598 514116.758648253
 -39.8717721724214 268480.607709719 514118.820598956
 -37.8496378310657 268470.055112251 514124.331339638
 -34.9034927441959 268467.509374952 514125.660896007
 -31.4949384138749 268456.976560711 514131.161031844
 -30.7425434750885 268455.243320601 514132.066096420
 -25.5437921373184 268445.290134620 514137.263337384
 -27.1660892592427 268443.590705354 514138.150569689
 -20.0870753138006 268434.953502758 514142.660488781
 -23.9224550867237 268432.403247517 514143.991810152
 -15.2764598641538 268425.875330500 514147.400284864
 -20.7467837962050 268421.619301407 514149.622056831
 -11.2845082883011 268417.891487698 514151.568510647
 -17.3938199641431 268411.273450931 514155.023297356
 -8.25722924365280 268410.757028077 514155.293120116
 -13.6805450413722 268401.492080265 514160.129591871
 -6.26469036197726 268404.157371917 514158.738393334
 -9.52919296429638 268392.470771613 514164.838881757
 -5.25870403296822 268397.739844888 514162.088468707
 -4.99994996960722 268384.433394407 514169.034352092
 -5.04802092164076 268391.162727926 514165.521737961
 -0.303048470121962 268377.577163526 514172.613113284
 -5.30017033026320 268384.154338425 514169.180009805
 4.21756819954169 268372.012217599 514175.517737367
 -5.57495167009453 268376.570757234 514173.138385804
 8.13217955998073 268367.707624466 514177.764433914
 -5.38828273704411 268368.438946682 514177.382766188
 11.0014611550957 268364.457201669 514179.460879002
 -4.29802011508806 268359.972996482 514181.801384349
 12.4700784686022 268361.877180909 514180.807421316
 -1.99714466425728 268351.555154139 514186.194721684
 12.3601613382526 268359.442955482 514182.077890557
 1.60420108779652 268343.679499487 514190.304916480
 10.7432844655466 268356.564216902 514183.580374055
 6.32699623237055 268336.863554624 514193.861901944
 7.97057057009824 268352.688214345 514185.603322968
 11.7181060141797 268331.540624568 514196.639592998
 4.64714536946026 268347.412193938 514188.356876369
 17.1009276117556 268327.952043491 514198.512113468
 1.54840866494334 268340.581048580 514191.921912541
 21.6811166277088 268326.062353859 514199.498046820
 -0.511232570149276 268332.346684613 514196.219086125
 24.6940549295261 268325.520111899 514199.780870123
 -0.834781650367296 268323.171743598 514201.006907570
 25.5682354371083 268325.681039942 514199.696850082
 1.00566383402678 268313.770610168 514205.912548605
 24.0699439527803 268325.698386976 514199.687870169
 5.05368877092506 268304.992786102 514210.492717243
 20.3933272956000 268324.669532286 514200.224916814
 10.9175829965078 268297.665587179 514214.315749063
 15.1683124185658 268321.812216784 514201.716117929
 17.8020785367303 268292.423133269 514217.050837840
 9.37582864007328 268316.633368558 514204.418660378
 24.6270851980432 268289.555257008 514218.546858730
 4.18100408227134 268309.052076176 514208.374646410
 30.2197386124485 268288.911244436 514218.882568545
 0.714454381881860 268299.446553250 514213.386619513
 33.5471068383779 268289.886953954 514218.373293708
 -0.155583788197006 268288.610369944 514219.040434852
 33.9419325237182 268291.508725882 514217.527116235
 1.98601835264647 268277.621538319 514224.773593998
 31.2687685259999 268292.605509862 514216.955040374
 6.98879482052611 268267.645374456 514229.978119131
 25.9867997825896 268292.037373534 514217.251759064
 14.1310709215655 268259.706035473 514234.119752933
 19.0877836473229 268288.931546960 514218.872509603
 22.2313097750604 268254.470706602 514236.850538436
 11.9168621435706 268282.872487780 514222.033938350
 29.8632809771521 268252.092626796 514238.090683226
 5.91173855973161 268274.001784217 514226.662019516
 35.6372817832736 268252.151966239 514238.059361096
 2.31435812593544 268263.003800646 514232.399588452
 38.4897203171239 268253.715682113 514237.243440497
 1.91522765912622 268250.977807474 514238.673090293
 37.9154846630566 268255.511107599 514236.306888980
 4.88411929520647 268239.221042776 514244.805778833
 34.0865034724318 268256.179596008 514235.958434127
 10.7243326210988 268228.965490747 514250.155038142
 27.8249809011802 268254.554575170 514236.806515682
 18.3637323155343 268221.121353572 514254.246188211
 20.4344329360150 268249.899979733 514239.234931853
 26.3680399753071 268216.080421322 514256.875022736
 13.4262456583011 268242.053275849 514243.328273778
 33.2353223125489 268213.622289680 514258.156681703
 8.20461526941836 268231.440443197 514248.864160585
 37.7109262146085 268212.947038394 514258.508552718
 5.78154578948936 268218.962273994 514255.372595402
 39.0538762693411 268212.832541403 514258.568168692
 6.58349072776790 268205.782803630 514262.246356224
 37.1917689434535 268211.886630290 514259.061647914
 10.3857451833143 268193.071450768 514268.875509630
 32.7228860194047 268208.838478960 514260.651703959
 16.3794666146960 268181.754498989 514274.777026403
 26.7607318784966 268202.797268552 514263.802752233
 23.3504448051826 268172.321353211 514279.695802572
 20.6606472783941 268193.409130956 514268.699097907
 29.9338916659228 268164.715848066 514283.661298012
 15.7056996016782 268180.871224868 514275.237652370
 34.9023192959878 268158.330803976 514286.990310131
 12.8422715167562 268165.808525545 514283.092248731
 37.4375702338435 268152.115072228 514290.231076499
 12.5354742702941 268149.066642254 514291.821733294
 37.3311664634423 268144.790241252 514294.050201691
 14.7658010969911 268131.501643388 514300.979591166
 35.0532102354262 268135.152435983 514299.075246500
 19.1287904492865 268113.839654553 514310.187163137
 31.6380219330914 268122.399462463 514305.724161735
 24.9566653799284 268096.629866514 514319.158141501
 28.3709720099926 268106.379619727 514314.075640839
 31.3894127211239 268080.241973654 514327.699893805
 26.3421203541006 268087.633889545 514323.847261236
 37.3992791556933 268064.815083639 514335.740072055
 26.0410082476055 268067.150834643 514334.523404042
 41.8731867421007 268050.112995721 514343.401989000
 27.2215315090290 268045.902151832 514345.597432892
 43.8754521676674 268035.379684315 514351.079820418
 29.1649773678118 268024.405731179 514356.799393040
 43.0740632539499 268019.401048621 514359.406258079
 31.2184342005121 268002.608588187 514368.156883118
 40.1005163741155 268000.909095426 514369.041755017
 33.2676412800138 267980.189991863 514379.836954356
 36.5465609950956 267979.208009003 514380.348321372
 35.8425713664380 267957.078334546 514391.876768795
 34.5146815969537 267954.684908741 514393.123636187
 39.8544012147904 267933.846076597 514403.977957237
 35.9700232927780 267928.946933098 514406.529994983
 46.2318534772024 267911.845643366 514415.436030628
 42.2457068085598 267904.659619459 514419.178850752
 55.6734927496425 267893.253243307 514425.117745216
 53.8140082547093 267885.383338375 514429.216217066
 68.4665820299840 267881.219262229 514431.382867442
 70.1934388545536 267875.560033518 514434.329540331
 84.3041321913488 267880.088805305 514431.969180061
 90.0595463187486 267880.623952254 514431.689537327
 102.474814666161 267895.778534146 514423.795466828
 112.110353902626 267907.788860029 514417.538677871
 123.086757633940 267937.612671484 514402.002878639
 136.965759153284 267969.870330885 514385.195972074
 148.784995221451 268025.248045917 514356.339781041
 167.917859591209 268097.064482213 514318.904785360
 182.340434740218 268206.887072239 514261.638156090
 202.324279784097 268363.910695988 514179.706426500
 206.907247392949 268596.912179723 514058.027810974
 193.338978467692 268940.195129081 513878.520726418
 118.263627485597 269442.172173433 513615.519497003
 -64.1961621677369 270174.964534834 513230.439878087
 -460.733300697519 271224.927061201 512676.142087256
 -1229.20768349089 272717.806272045 511882.298180583
 -2642.73948032223 274797.376915741 510763.563273916
 -5129.53795073937 277653.067885339 509197.861085720
 -9367.48614204021 281486.684263539 507028.102560103
 -16405.7666483669 286519.386750256 504021.320815833
 -27835.2807893017 292924.588354737 499820.350406612
 -46024.6850405883 300755.519698221 493789.272603170
 -74358.5871558325 309743.860126998 484695.308033629
 -117351.354683756 318952.411424058 469997.892336408
 -180008.062386480 326175.399047715 444529.758882270
 -0.000000000000000 -0.000000000000000 -0.000000000000000
 -0.000000000000000 -0.000000000000000 -0.000000000000000
 0.000000000000000 0.000000000000000 -0.000000000000000
 0.000000000000000 -0.000000000000000 0.000000000000000
 -0.000000000000000 -0.000000000000000 -0.000000000000000
 -0.000000000000000 -0.000000000000000 -0.000000000000000
 0.000000000000000 0.000000000000000 0.000000000000000
 0.000000000000000 0.000000000000000 -0.000000000000000
 0.000000000000000 0.000000000000000 -0.000000000000000
 0.000000000000000 0.000000000000000 -0.000000000000000
 -0.000000000000000 0.000000000000000 0.000000000000000
 -0.000000000000000 -0.000000000000000 0.000000000000000
 0.000000000000000 -0.000000000000000 -0.000000000000000
 -0.000000000000000 -0.000000000000000 -0.000000000000000
 -0.000000000000000 0.000000000000000 0.000000000000000
 -0.000000000000000 0.000000000000000 0.000000000000000
 -0.000000000000000 -0.000000000000000 -0.000000000000000
 0.000000000000000 0.000000000000000 -0.000000000000000
 0.000000000000000 -0.000000000000000 0.000000000000000
 -0.000000000000000 -0.000000000000000 -0.000000000000000
 -0.000000000000000 0.000000000000000 0.000000000000000
 0.000000000000000 -0.000000000000000 -0.000000000000000
 0.000000000000000 0.000000000000000 -0.000000000000000
 0.000000000000000 -0.000000000000000 0.000000000000000
 -0.000000000000000 0.000000000000000 0.000000000000000
 248234.158643194 272611.112168500 447730.928130903
 182330.797668651 269428.580136254 480170.511826034
 130961.837095292 261596.563824596 500815.569865584
 92404.2700574489 252046.973162003 514134.004122488
 64216.4462243834 242400.823614909 522989.568485954
 43999.9610040112 233481.635574091 529103.325713695
 29713.6129243669 225643.911997798 533480.952036069
 19744.5401338675 218980.836989466 536709.927396815
 12868.3357242414 213445.437489368 539143.256612434
 8181.39768709147 208926.532627732 541001.634651910
 5026.83872953355 205285.398616146 542432.148759084
 2934.72671511489 202384.376099355 543536.522866662
 1571.76107362727 200091.676388496 544390.347643277
 703.493238927308 198294.893167365 545049.209192167
 167.894501927610 196893.417428115 545557.470835947
 -148.973185494539 195808.085519856 545947.956724850
 -321.780017522480 194969.096393683 546248.064444215
 -405.556384134438 194324.885591794 546477.514966312
 -431.273940268684 193829.773217263 546653.302393146
 -426.609454391074 193451.442093965 546787.305591615
 -400.867434351151 193161.706777540 546889.746054987
 -369.850435369794 192940.014295206 546968.019261109
 -332.279583473022 192770.825133238 547027.694516219
 -299.099205454481 192639.576803927 547073.947459088
 -264.334200113040 192540.283204873 547108.919202399
 -236.582206532007 192460.284164375 547137.078846086
 -208.815981437022 192401.230501875 547157.859211809
 -187.341321872251 192349.788850856 547175.953082973
 -166.881115459051 192313.829178732 547188.599348805
 -150.184078503915 192278.173231680 547201.134450059
 -136.204695607247 192255.393812099 547209.141917819
 -122.311239349087 192228.657239354 547218.538041171
 -113.849911635268 192213.189562302 547223.973155859
 -101.073891452230 192191.997820941 547231.418832712
 -97.2492267853667 192180.163283592 547235.575765026
 -84.4898804883905 192163.174178537 547241.543882671
 -84.4152076232922 192152.470411903 547245.302390688
 -71.2646595760833 192139.456637737 547249.873571757
 -73.8847738531384 192128.074462492 547253.869373598
 -60.6416500759994 192119.300354303 547256.951307120
 -64.6095681363176 192105.969531341 547261.630571729
 -52.2147193224081 192101.727627632 547263.120917263
 -55.8698578693037 192085.750818141 547268.728515699
 -45.7524547421361 192086.001496132 547268.641469563
 -47.2280855133117 192067.367918242 547275.181193580
 -41.0522018552669 192071.476583711 547273.739729644
 -38.5116868912431 192050.964719838 547280.938337002
 -37.8323765664347 192057.560368301 547278.623805176
 -29.8049666926223 192036.754132447 547285.925430152
 -35.6699087640436 192043.742453928 547283.472902249
 -21.4287297167156 192024.905299321 547290.083306464
 -33.9887011167241 192029.660262399 547288.414297504
 -13.8907429885179 192015.440779933 547293.404225864
 -32.1015346427256 192015.173431068 547293.497258763
 -7.79843594409286 192008.153892587 547295.960863905
 -29.3011723512714 192000.420949897 547298.673026442
 -3.73626324082280 192002.562718821 547297.922429316
 -24.9873813300057 191985.838106393 547303.788898100
 -2.12210968851805 191997.917211564 547299.552148472
 -18.8071756793356 191972.116673946 547308.602221832
 -3.06762823995774 191993.269595325 547301.182550053
 -10.7783062888407 191960.102116205 547312.816476432
 -6.27375836597346 191987.606807879 547303.168995779
 -1.36342177192772 191950.635130201 547316.136863563
 -10.9924776736599 191980.029295843 547305.826965813
 8.53364712153084 191944.359588962 547318.337669368
 -16.0777991409905 191969.946297676 547309.363577832
 17.6665590042602 191941.531874227 547319.329121188
 -20.1335812848911 191957.247575556 547313.817382547
 24.6390809227531 191941.874254271 547319.208781012
 -21.7452611330705 191942.408740627 547319.021461879
 28.1686734167929 191944.514211303 547318.282784992
 -19.7611589770441 191926.493894122 547324.602544967
 27.3767200707161 191948.040596216 547317.046109281
 -13.5713755525682 191911.035384855 547330.023215729
 22.0459378121469 191950.686588288 547316.118374255
 -3.32317405023682 191897.794043812 547334.666022604
 12.7817938665163 191950.621897387 547316.141356924
 9.98534799771990 191888.430367922 547337.948795100
 1.02567693552066 191946.308267793 547317.654330019
 24.5749443078459 191884.142425195 547339.451603682
 -11.1071233016468 191936.850237068 547320.971092562
 38.1307746261855 191885.343667774 547339.029698728
 -21.1560394951867 191922.263741216 547326.085832631
 48.1988073362114 191891.457654587 547336.885433526
 -26.7633713770806 191903.592436624 547332.632403405
 52.6694472529584 191900.893069371 547333.576957514
 -26.1620329831780 191882.825691174 547339.913143851
 50.2545697513455 191911.231158668 547329.952432390
 -18.6037270935389 191862.609451383 547347.000310048
 40.8517329372585 191919.613453000 547327.014044791
 -4.62833226474163 191845.785010700 547352.897820234
 25.7009551591993 191923.269715043 547325.732887965
 13.9031680645124 191834.832632660 547356.736320566
 7.27547845822180 191920.086462011 547326.849660677
 34.0482816247802 191831.327852316 547357.963763323
 -11.0980457525966 191909.096265180 547330.703183656
 52.2754709607125 191835.529519154 547356.489759080
 -25.8343391789870 191890.774069556 547337.126604411
 65.1304603502834 191846.204195357 547352.747041482
 -33.7911951639788 191867.059277149 547345.439756736
 69.9482548253647 191860.750313678 547347.647840304
 -32.9375770041724 191841.075289600 547354.547571175
 65.4581468920459 191875.623523852 547342.434690171
 -22.8431238687162 191816.581206847 547363.132346625
 52.1388905120724 191886.995097089 547338.449585031
 -4.87032599584010 191797.250961346 547369.906461755
 32.2269856239792 191891.515603164 547336.866290717
 17.9950764298956 191785.920651525 547373.876172424
 9.35369078083018 191887.022803201 547338.442275191
 41.6659148531173 191783.963894479 547374.560476528
 -12.1310252560788 191873.035796141 547343.345613346
 61.7384441352539 191790.939876650 547372.114351467
 -28.0166316671965 191850.917362792 547351.098219528
 74.3841887901026 191804.608338255 547367.323364486
 -35.0953540850711 191823.654591208 547360.652867549
 77.1572801127263 191821.328140667 547361.463858303
 -31.8451112876879 191795.289609232 547370.592806738
 69.5342155758209 191836.768488237 547356.053607689
 -18.7782136119051 191770.110282519 547379.415441985
 53.0564658136456 191846.786199006 547352.544353386
 1.63084803894215 191751.767902996 547385.841526264
 31.0334337880149 191848.278585802 547352.022961997
 25.4351939499553 191742.511156684 547389.083530517
 7.86324787385771 191839.821622283 547354.987899169
 48.0261402363900 191742.705806119 547389.013831697
 -11.8822959315895 191821.948508479 547361.251760865
 65.0929096460077 191750.750302899 547386.194127316
 -24.4064292669204 191797.005035493 547369.992111132
 73.5219420299304 191763.411687411 547381.757581059
 -27.4593973551451 191768.616266763 547379.938489814
 72.0350505772977 191776.512419182 547377.168043468
 -20.7662852555683 191740.888741877 547389.652033391
 61.4206077744014 191785.817081542 547373.909310514
 -6.02564772023521 191717.529326838 547397.834223432
 44.3038217072969 191787.916699956 547373.175306446
 13.5079445704684 191701.072445904 547403.597577350
 24.5129566444002 191780.903626482 547375.633731833
 33.7564620474922 191692.374660772 547406.642595261
 6.20050706225230 191764.679868930 547381.318201782
 50.7048284407090 191690.474068714 547407.306838639
 -7.05985849719802 191740.838204437 547389.670084135
 61.2535974146421 191692.837557982 547406.478110157
 -12.9804328964935 191712.170971505 547399.710753395
 63.8586308505441 191695.943586109 547405.390122080
 -10.9147051773524 191681.959645008 547410.290575103
 58.8189114316624 191696.082384239 547405.342081049
 -1.81354669184060 191653.247849933 547420.343598303
 48.1378458738699 191690.207122675 547407.400549183
 12.1438400487042 191628.281063576 547429.083762587
 34.9638788007442 191676.638966809 547412.152634480
 28.0842077824970 191608.205643180 547436.110191389
 22.7182578874702 191655.420818882 547419.582363125
 42.9801192965309 191592.996273822 547441.432421340
 14.1446120329943 191628.163969759 547429.124703381
 54.1316726261230 191581.511931577 547445.450575464
 10.6168951100464 191597.391016724 547439.895918142
 59.6329609681130 191571.640146717 547448.904588736
 12.0033263259405 191565.629103894 547451.011143417
 58.8473475631328 191560.627828505 547452.758147165
 17.1292745210064 191534.689306487 547461.836568409
 52.7440577774803 191545.728754779 547457.971915530
 24.5321161844967 191505.475413357 547472.056168056
 43.8101312151558 191525.091022719 547465.193039166
 33.0498173739940 191478.296415605 547481.562163958
 35.3914425384348 191498.508646170 547474.492495987
 42.0114278433560 191453.323840938 547490.294914254
 30.7119269454205 191467.627755213 547485.293481540
 51.1928956940328 191430.890022809 547498.138557897
 32.0882041228820 191435.586965823 547496.497717929
 60.8175133362118 191411.712500897 547504.842552743
 40.6440006743220 191406.534586454 547506.654631402
 71.5689507970759 191397.348490761 547509.862804856
 56.3270036209301 191385.452231571 547514.023109350
 84.3096734572845 191390.875953637 547512.123604198
 77.9176138850801 191378.225476813 547516.546546487
 99.5675048814655 191397.418627187 547509.833910918
 103.346974351808 191391.818072903 547511.791009245
 117.693219533133 191424.772503845 547500.267232955
 131.250119446003 191435.774703376 547496.417282455
 140.576846191314 191486.683813497 547478.611600727
 163.594208470507 191529.124016548 547463.759431059
 173.198994628239 191614.561415355 547433.858886815
 204.869861538397 191719.823723410 547396.992337193
 216.778839065874 191886.083499893 547338.728728388
 244.380119788947 192125.925423280 547254.574269239
 232.865369462524 192480.603514803 547129.932506253
 190.759023476236 193008.625777591 546943.903875380
 32.1928396992481 193771.687357721 546674.063901116
 -310.522037012740 194886.615718807 546277.503279912
 -1016.45541745354 196463.042854992 545711.681761113
 -2334.92543546302 198689.633134421 544900.888059581
 -4695.52217261151 201747.505205634 543760.881467975
 -8765.88065480722 205895.220023385 542153.407909484
 -15583.9426481996 211367.704981721 539889.649856615
 -26751.1972878100 218411.283191037 536638.504785590
 -44658.6670950129 227130.789762835 531805.610909670
 -72838.1138352920 237349.666729572 524175.299757893
 -116243.726824172 248148.917102634 511184.419671430
 -181324.983381418 256896.848788427 487365.632235497
 -0.000000000000000 0.000000000000000 -0.000000000000000
 -0.000000000000000 -0.000000000000000 0.000000000000000
 -0.000000000000000 -0.000000000000000 -0.000000000000000
 0.000000000000000 0.000000000000000 0.000000000000000
 0.000000000000000 -0.000000000000000 -0.000000000000000
 -0.000000000000000 0.000000000000000 0.000000000000000
 0.000000000000000 0.000000000000000 -0.000000000000000
 -0.000000000000000 0.000000000000000 0.000000000000000
 0.000000000000000 0.000000000000000 0.000000000000000
 0.000000000000000 -0.000000000000000 -0.000000000000000
 -0.000000000000000 0.000000000000000 0.000000000000000
 -0.000000000000000 0.000000000000000 0.000000000000000
 -0.000000000000000 0.000000000000000 -0.000000000000000
 -0.000000000000000 -0.000000000000000 0.000000000000000
 -0.000000000000000 0.000000000000000 0.000000000000000
 0.000000000000000 0.000000000000000 -0.000000000000000
 -0.000000000000000 0.000000000000000 -0.000000000000000
 -0.000000000000000 0.000000000000000 0.000000000000000
 0.000000000000000 -0.000000000000000 0.000000000000000
 0.000000000000000 0.000000000000000 -0.000000000000000
 -0.000000000000000 -0.000000000000000 0.000000000000000
 -0.000000000000000 0.000000000000000 -0.000000000000000
 -0.000000000000000 -0.000000000000000 -0.000000000000000
 -0.000000000000000 0.000000000000000 -0.000000000000000
 0.000000000000000 -0.000000000000000 0.000000000000000
 244643.103333900 219729.447410947 477774.760668287
 176351.523810201 216158.577778077 508503.303138514
 124617.650103921 207312.536759342 527154.582058226
 86714.3243839853 196755.146666556 538672.477677161
 59538.2683471309 186325.130605453 546020.274630061
 40344.2029625581 176869.094217360 550898.964237587
 26946.5232309552 168697.801372609 554269.732799665
 17690.4378633886 161845.008642320 556680.556141284
 11362.0350661860 156216.369598743 558450.848355112
 7082.69317423947 151660.618495548 559775.751756851
 4226.80750253598 148017.835940528 560778.792699777
 2350.41180539572 145129.492505866 561544.215506967
 1142.09666927401 142859.629845862 562129.719704893
 385.192012265394 141083.937109162 562579.038284303
 -72.1500800963391 139705.802345141 562922.981930446
 -330.828126952834 138637.346371231 563186.982044058
 -464.797426442613 137815.809452690 563388.486417900
 -516.519120694998 137182.401716815 563543.008001345
 -523.875506971963 136698.328456555 563660.618237284
 -499.676188084944 136326.223503759 563750.752645982
 -466.470741940724 136041.962149756 563819.445336441
 -421.859932027806 135824.071391404 563872.010003033
 -382.655179461729 135655.600231125 563912.592252511
 -338.939361821218 135527.663519304 563943.381503062
 -305.315318243785 135424.865719581 563968.095309823
 -269.231919176029 135349.126636850 563986.295429965
 -243.135342936491 135282.768064308 564002.228320122
 -215.842037670529 135237.348573342 564013.131906578
 -195.635967546650 135190.858723077 564024.284445524
 -176.571302158640 135163.074182229 564030.949682891
 -159.680045845515 135127.515567070 564039.474716933
 -148.005913985029 135109.787628476 564043.724706904
 -132.043504107467 135080.828372509 564050.664719677
 -126.985973979475 135068.275554335 564053.671926121
 -110.249180173773 135044.355497959 564059.402805467
 -110.977597539207 135033.465732544 564062.009726085
 -92.6824964168857 135014.629475047 564066.521996893
 -98.0475085959043 135002.637160907 564069.391428294
 -78.4410289012535 134989.710792653 564072.488096273
 -86.7448295754175 134974.432752447 564076.142890735
 -67.1062941801052 134968.366602767 564077.597067395
 -76.0076269261044 134948.321619365 564082.391778859
 -58.5107266080600 134949.626619344 564082.081661698
 -65.1242109477763 134924.294671409 564088.140689254
 -52.5283777308895 134932.574815563 564086.161410127
 -53.7388542589132 134902.664363374 564093.315205737
 -48.9052123096150 134916.295773519 564090.055525740
 -41.8741448891964 134883.896751232 564097.804147259
 -47.1439099857055 134899.924720811 564093.970972720
 -29.9371494413859 134868.443778436 564101.499711311
 -46.4583725542232 134882.761805585 564098.075168953
 -18.6799219919301 134856.572514581 564104.338310458
 -45.8095360997144 134864.412601571 564102.462426038
 -9.09511327245229 134848.208542792 564106.337998500
 -44.0247871288345 134844.914967510 564107.123664667
 -2.24320414736494 134842.822974325 564107.625446850
 -39.9889307353483 134824.812512037 564111.928904166
 0.973021029526374 134839.395679625 564108.444691095
 -32.8778153478363 134805.140770750 564116.630618906
 0.0522225824865789 134836.480483841 564109.141506081
 -22.3902784595606 134787.305644908 564120.892837397
 -4.89242304001203 134832.381804002 564110.121158204
 -8.92451779025122 134772.854345519 564124.345913128
 -13.0051363326716 134825.429008375 564111.782826396
 6.35459661720483 134763.164372403 564126.660855482
 -22.6920204948905 134814.309190760 564114.440093932
 21.5977758910565 134759.101181626 564127.631110422
 -31.7860044073552 134798.396999882 564118.242176152
 34.5180617879141 134760.714050023 564127.245182530
 -37.8695767058754 134778.007776349 564123.113500709
 42.7820879604386 134767.046081606 564125.731960643