# OOMMF OVF 2.0
#
# Segment count: 1
#
# Begin: Segment
# Begin: Header
#
# Title: Oxs_TimeDriver::Magnetization
# Desc: Oxs vector field output
# Desc:  MIF source file: C:/Users/Victor H. González/Documents/GitHub/Intro-to-magnetism-in-python/domain_wall_conversion_thin_film/drive-40/domain_wall_conversion_thin_film.mif
# Desc:  Iteration: 4082, State id: 28688
# Desc:  Stage: 339, Stage iteration: 11
# Desc:  Stage simulation time: 2e-12 s
# Desc:  Total simulation time: 6.8e-10 s
# meshunit: m
# meshtype: rectangular
# xbase: 1.0000000000000001e-09
# ybase: 1.0000000000000001e-09
# zbase: 1.0000000000000001e-09
# xnodes: 225
# ynodes: 100
# znodes: 1
# xstepsize: 2.0000000000000001e-09
# ystepsize: 2.0000000000000001e-09
# zstepsize: 2.0000000000000001e-09
# xmin: 0
# ymin: 0
# zmin: 0
# xmax: 4.5000000000000003e-07
# ymax: 2.0000000000000002e-07
# zmax: 2.0000000000000001e-09
# valuedim: 3
# valuelabels: Magnetization_x Magnetization_y Magnetization_z
# valueunits: A/m A/m A/m
#
# End: Header
#
# Begin: Data Text
 0.000000000000000 -0.000000000000000 -0.000000000000000
 -0.000000000000000 0.000000000000000 0.000000000000000
 0.000000000000000 0.000000000000000 -0.000000000000000
 0.000000000000000 0.000000000000000 0.000000000000000
 0.000000000000000 0.000000000000000 0.000000000000000
 0.000000000000000 -0.000000000000000 0.000000000000000
 -0.000000000000000 -0.000000000000000 0.000000000000000
 -0.000000000000000 -0.000000000000000 -0.000000000000000
 -0.000000000000000 0.000000000000000 -0.000000000000000
 -0.000000000000000 -0.000000000000000 -0.000000000000000
 0.000000000000000 -0.000000000000000 -0.000000000000000
 0.000000000000000 0.000000000000000 0.000000000000000
 0.000000000000000 0.000000000000000 -0.000000000000000
 0.000000000000000 0.000000000000000 0.000000000000000
 0.000000000000000 0.000000000000000 -0.000000000000000
 -0.000000000000000 0.000000000000000 -0.000000000000000
 0.000000000000000 -0.000000000000000 -0.000000000000000
 -0.000000000000000 -0.000000000000000 0.000000000000000
 0.000000000000000 -0.000000000000000 -0.000000000000000
 -0.000000000000000 -0.000000000000000 -0.000000000000000
 0.000000000000000 -0.000000000000000 0.000000000000000
 0.000000000000000 -0.000000000000000 0.000000000000000
 0.000000000000000 0.000000000000000 -0.000000000000000
 -0.000000000000000 -0.000000000000000 0.000000000000000
 0.000000000000000 -0.000000000000000 0.000000000000000
 250286.190096461 337895.735455399 399478.779171127
 187040.783088104 336764.429256749 433595.969364528
 135955.762441307 331296.592857242 456244.011708851
 96806.7736077625 323667.225449886 471453.047241428
 67791.9648366282 315438.231240634 481978.185995352
 46775.7655918783 307528.795134737 489528.413798699
 31811.4424910674 300401.968330970 495122.903479042
 21303.9423890202 294237.794251112 499369.865403316
 14017.0663872462 289054.304614803 502644.139360590
 9024.09927648853 284784.286743566 505189.544286307
 5645.49731482171 281321.685715526 507174.760320586
 3390.86268638261 278548.561947157 508723.108072960
 1910.69647062958 276349.953050762 509928.478012200
 958.524458642891 274621.355666763 510864.162221829
 362.165894915818 273271.809956908 511588.102596942
 2.42562986513615 272224.460491958 512146.310251259
 -202.454814654431 271415.758575327 512575.306671154
 -308.004669461612 270794.017456894 512903.992227278
 -351.522339109143 270317.741501575 513155.137420969
 -357.735806869395 269953.966912984 513346.596144394
 -342.778535283731 269676.736793452 513492.298029202
 -316.962593271896 269465.764428216 513603.058144938
 -286.699396410024 269305.297830614 513687.233989536
 -255.820575197806 269183.177075553 513751.254728730
 -226.479020970981 269090.064624537 513800.044596744
 -199.758261925409 269018.825348703 513837.359195146
 -176.079944618494 268964.032172673 513866.051022317
 -155.473113744908 268921.575460531 513888.277819155
 -137.748834347853 268888.356512340 513905.665231812
 -122.611417463032 268862.048636633 513919.433150132
 -109.726653991421 268840.911989829 513930.493355413
 -98.7623386821978 268823.650691828 513939.524725155
 -89.4101407286280 268809.303356849 513947.030767405
 -81.3963200708889 268797.159234381 513953.383646966
 -74.4849573384601 268786.694791520 513958.857453631
 -68.4773597503274 268777.525304090 513963.653580931
 -63.2089600585490 268769.368898888 513967.919569228
 -58.5453310052714 268762.019020598 513971.763528325
 -54.3778799927516 268755.324544390 513975.264552766
 -50.6195388650763 268749.174321538 513978.480813305
 -47.2011443730137 268743.486503770 513981.455145855
 -44.0677511406918 268738.199979836 513984.219533666
 -41.1762016855843 268733.268832038 513986.798008828
 -38.4921705816751 268728.657685704 513989.209085942
 -35.9888782208136 268724.338889401 513991.467237789
 -33.6447149351173 268720.290125633 513993.584145589
 -31.4428586011808 268716.492897430 513995.569490878
 -29.3693177293344 268712.931523461 513997.431481434
 -27.4131543094991 268709.592101190 513999.177393633
 -25.5648692668126 268706.462440345 514000.813607560
 -23.8169163471517 268703.531031028 514002.346146602
 -22.1624583490316 268700.787683742 514003.780343065
 -20.5958551607172 268698.222266606 514005.121498391
 -19.1119078457611 268695.825897045 514006.374260320
 -17.7060131890174 268693.589387451 514007.543435489
 -16.3740638864243 268691.504824555 514008.633163886
 -15.1119941777473 268689.563808600 514009.647839388
 -13.9165045780464 268687.759198651 514010.591197437
 -12.7837915987279 268686.083356069 514011.467233320
 -11.7112070879865 268684.529758826 514012.279358311
 -10.6950787302437 268683.091560443 514013.031153041
 -9.73329679592576 268681.762712731 514013.725780590
 -8.82229148645066 268680.537211651 514014.366380771
 -7.96037290569664 268679.409343157 514014.955941599
 -7.14412524238545 268678.373989128 514015.497139453
 -6.37212950954340 268677.425648737 514015.992850575
 -5.64123925307761 268676.560104048 514016.445280531
 -4.95012186617251 268675.771985796 514016.857236544
 -4.29606080487320 268675.057940599 514017.230472054
 -3.67760094021490 268674.412709368 514017.567736504
 -3.09263549031898 268673.833700679 514017.870384887
 -2.53937875689021 268673.315820391 514018.141080281
 -2.01649868027959 268672.857059919 514018.380872896
 -1.52170753154968 268672.452626688 514018.592268066
 -1.05455772567134 268672.100841564 514018.776143702
 -0.612165573134469 268671.797423334 514018.934737759
 -0.194981239093945 268671.540712207 514019.068917965
 0.200452388541703 268671.327195765 514019.180520363
 0.572905312666059 268671.154901006 514019.270576339
 0.926240789041062 268671.021347147 514019.340382658
 1.25871754659310 268670.923942377 514019.391294107
 1.57428426983621 268670.861450326 514019.423956976
 1.87110343193683 268670.830441063 514019.440164094
 2.15275341489183 268670.831023831 514019.439858386
 2.41782800835409 268670.858858010 514019.425308667
 2.66899432749239 268670.915330876 514019.395789833
 2.90585206351521 268670.995315295 514019.353981779
 3.12961118204452 268671.101199860 514019.298636014
 3.34140559430048 268671.227418533 514019.232661828
 3.54054096902214 268671.376864536 514019.154546967
 3.73005702515646 268671.544095531 514019.067136045
 3.90711985029238 268671.731821669 514018.969012506
 4.07677909697705 268671.935450319 514018.862576813
 4.23414088172169 268672.156703788 514018.746928755
 4.38601205827227 268672.392632120 514018.623610172
 4.52590334380325 268672.643164487 514018.492658119
 4.66172431305546 268672.907719064 514018.354376623
 4.78625450862305 268673.183773753 514018.210084007
 4.90747008817091 268673.473616517 514018.058584279
 5.01862530010375 268673.771921095 514017.902661478
 5.12644308477659 268674.083969706 514017.739554540
 5.22606186183014 268674.401724698 514017.573464724
 5.32152461377798 268674.733089889 514017.400260690
 5.41125541809617 268675.067945617 514017.225231934
 5.49532451276552 268675.415892686 514017.043360134
 5.57657284831368 268675.765906902 514016.860407556
 5.65021329339110 268676.127846459 514016.671221381
 5.72408999787657 268676.491418531 514016.481181550
 5.78834451734483 268676.864927985 514016.285947210
 5.85562888173324 268677.240709789 514016.089524720
 5.91166733216723 268677.623582141 514015.889395751
 5.97279868416434 268678.010371190 514015.687219082
 6.02193035519078 268678.400682170 514015.483201243
 6.07703903681234 268678.797307912 514015.275882190
 6.12067952796482 268679.193487444 514015.068796114
 6.16966274018696 268679.598706110 514014.856984755
 6.20925392179796 268679.999596557 514014.647435498
 6.25189414553600 268680.412012316 514014.431861408
 6.28878437802900 268680.816895240 514014.220224457
 6.32489899404737 268681.234924789 514014.001715212
 6.36019990138093 268681.643500606 514013.788147129
 6.38980172161243 268682.065394078 514013.567617376
 6.42424561546558 268682.477705258 514013.352095928
 6.44768718738587 268682.901628399 514013.130504437
 6.48151395223839 268683.317926144 514012.912898294
 6.49958567654963 268683.742097899 514012.691176030
 6.53248809029830 268684.162663324 514012.471338231
 6.54644299017127 268684.585530965 514012.250296817
 6.57759416589778 268685.010473103 514012.028170357
 6.58908116571758 268685.430896320 514011.808405841
 6.61725684437273 268685.859958802 514011.584124727
 6.62815882872303 268686.277367326 514011.365935186
 6.65195126636084 268686.709781096 514011.139901423
 6.66414173857254 268687.124269516 514010.923237402
 6.68224277371387 268687.558688064 514010.696154853
 6.69729253572431 268687.971017160 514010.480618662
 6.70880446966287 268688.405561689 514010.253469431
 6.72768438597697 268688.817047395 514010.038373191
 6.73240331293252 268689.249471903 514009.812331341
 6.75523849039970 268689.661759800 514009.596814856
 6.75385056240987 268690.089722883 514009.373104319
 6.77978308291624 268690.504466825 514009.156303073
 6.77392273137592 268690.925873580 514008.936018929
 6.80113191574513 268691.344360179 514008.717260383
 6.79327113857283 268691.757719998 514008.501181828
 6.81917939366537 268692.180502556 514008.280176770
 6.81234386217511 268692.585240641 514008.068604272
 6.83400162059059 268693.011859473 514007.845593024
 6.83133671113167 268693.408520604 514007.638241799
 6.84593672157700 268693.837381957 514007.414057512
 6.85017218921826 268694.227670337 514007.210036705
 6.85560431602408 268694.656127062 514006.986063186
 6.86849258618201 268695.042734255 514006.783965797
 6.86383283060970 268695.467361921 514006.561993178
 6.88566596164541 268695.853550940 514006.360113491
 6.87151096151902 268696.270558747 514006.142123422
 6.90085297050465 268696.659504077 514005.938802003
 6.87946685579424 268697.065178943 514005.726735506
 6.91326704915151 268697.459108911 514005.520807532
 6.88860570416332 268697.850169696 514005.316379831
 6.92290669196802 268698.249402049 514005.107679241
 6.90077372596463 268698.623137676 514004.912307554
 6.93240293031803 268699.025139658 514004.702158394
 6.92143918579512 268699.379274145 514004.517032471
 6.95165418224915 268699.778043949 514004.308572220
 6.96694663020884 268700.110702727 514004.134671895
 7.00953303676473 268700.497592549 514003.932421127
 7.08302318277195 268700.809454110 514003.769391370
 7.18267943192160 268701.179537310 514003.575924981
 7.38923879719403 268701.485600351 514003.415924022
 7.66230740908551 268701.862480979 514003.218900954
 8.17830607615520 268702.235381875 514003.023954041
 8.89757565143189 268702.750250309 514002.754787125
 10.1194051958171 268703.452972080 514002.387405427
 11.8747971354055 268704.568640637 514001.804131696
 14.6304193297367 268706.417521261 514000.837517645
 18.5916086498219 268709.511633940 513999.219855246
 24.4475580148059 268714.791479930 513996.459367392
 32.6764100246802 268723.573900896 513991.867408602
 44.1776549151373 268738.196660306 513984.221259857
 59.6226932855716 268761.950394879 513971.799289684
 79.7326445556980 268800.249320850 513951.767783470
 104.549766352679 268860.815373529 513920.082333846
 132.896536825921 268955.567035330 513870.494676640
 161.014329777446 269101.482994227 513794.089032458
 180.165268635523 269323.499965391 513677.739353057
 173.082969470772 269656.594713794 513502.961013515
 107.281395813405 270149.981346092 513243.583563796
 -74.4702975362449 270870.770561416 512863.549211328
 -470.743476747738 271909.251175949 512313.514876891
 -1245.50144315682 273383.344664291 511527.121066246
 -2666.93327752991 275442.682340203 510415.728805576
 -5164.09207265996 278269.304481971 508861.008858200
 -9413.07152944265 282071.892547135 506701.925711023
 -16460.3005524754 287067.046414074 503707.821429073
 -27897.3993348006 293435.172484279 499517.301661791
 -46088.5485859906 301228.549088211 493494.890453233
 -74419.2934657069 310184.976955882 484403.807614003
 -117397.300148323 319369.234708417 469703.274248375
 -180022.437985316 326580.522127691 444226.388667567
 -0.000000000000000 -0.000000000000000 -0.000000000000000
 -0.000000000000000 -0.000000000000000 -0.000000000000000
 0.000000000000000 0.000000000000000 -0.000000000000000
 0.000000000000000 -0.000000000000000 0.000000000000000
 -0.000000000000000 -0.000000000000000 -0.000000000000000
 -0.000000000000000 -0.000000000000000 -0.000000000000000
 0.000000000000000 0.000000000000000 0.000000000000000
 0.000000000000000 0.000000000000000 -0.000000000000000
 0.000000000000000 0.000000000000000 -0.000000000000000
 0.000000000000000 0.000000000000000 -0.000000000000000
 -0.000000000000000 0.000000000000000 0.000000000000000
 -0.000000000000000 -0.000000000000000 0.000000000000000
 0.000000000000000 -0.000000000000000 -0.000000000000000
 -0.000000000000000 -0.000000000000000 -0.000000000000000
 -0.000000000000000 0.000000000000000 0.000000000000000
 -0.000000000000000 0.000000000000000 0.000000000000000
 -0.000000000000000 -0.000000000000000 -0.000000000000000
 0.000000000000000 0.000000000000000 -0.000000000000000
 0.000000000000000 -0.000000000000000 0.000000000000000
 -0.000000000000000 -0.000000000000000 -0.000000000000000
 -0.000000000000000 0.000000000000000 0.000000000000000
 0.000000000000000 -0.000000000000000 -0.000000000000000
 0.000000000000000 0.000000000000000 -0.000000000000000
 0.000000000000000 -0.000000000000000 0.000000000000000
 -0.000000000000000 0.000000000000000 0.000000000000000
 248284.555571356 272675.162365633 447663.975872093
 182387.709658055 269492.741335427 480112.888530610
 131021.572969427 261662.399993216 500765.549779941
 92464.6039149834 252115.947604552 514089.336581011
 64276.5414528066 242474.445143718 522948.056379514
 44058.9531188123 233560.940002031 529063.413926385
 29771.4507253961 225730.089624735 533441.268894444
 19800.5951028989 219074.137161363 536669.785678843
 12922.7054194229 213546.719596850 539101.847737575
 8233.60208753949 209035.269043835 540958.837706193
 5076.95372779273 205402.338970870 542387.411069009
 2982.58546064877 202508.397681033 543490.067114966
 1617.25150099134 200223.630224686 544341.696361054
 746.946950744404 198433.278035294 544998.785538483
 208.781372482147 197039.258661861 545504.800122165
 -109.651399510715 195959.735403290 545893.551965255
 -285.213185735707 195127.651015568 546191.466852591
 -369.932690758702 194488.830609084 546419.214448134
 -398.620559282511 194000.003634563 546592.937835314
 -394.243401060846 193626.933848607 546725.209827137
 -371.690294239516 193342.749128782 546825.788716708
 -340.394963912888 193126.502955541 546902.219768243
 -306.149032568357 192961.967711919 546960.314181491
 -272.346437363680 192836.640818327 547004.529949544
 -240.830981692818 192740.938826943 547038.273341589
 -212.467484556420 192667.550749734 547064.136775266
 -187.523123672181 192610.924711966 547084.085417113
 -165.917427706541 192566.863109485 547099.603092142
 -147.384366778717 192532.205894127 547111.805732055
 -131.573528829558 192504.584113285 547121.529263635
 -118.112557775313 192482.229065663 547129.397440256
 -106.642155919024 192463.825694043 547135.873825382
 -96.8354655102008 192448.399701906 547141.301744867
 -88.4055866997407 192435.232273272 547145.934431011
 -81.1078488109599 192423.794268533 547149.958257165
 -74.7373798189475 192413.697860101 547153.509803351
 -69.1255757931112 192404.658549458 547156.689249178
 -64.1352935239245 192396.468625583 547159.569729955
 -59.6560132440623 192388.975317148 547162.205033917
 -55.5996646951329 192382.066882136 547164.634503030
 -51.8959445441529 192375.660006983 547166.887470074
 -48.4897741200695 192369.692961491 547168.985669550
 -45.3370029933141 192364.118340223 547170.945792761
 -42.4036404116805 192358.899891171 547172.780604618
 -39.6617950623806 192354.008516365 547174.500351239
 -37.0904530795633 192349.420667687 547176.113324680
 -34.6715125099903 192345.116602227 547177.626477145
 -32.3916906339614 192341.079006706 547179.045904825
 -30.2386876716109 192337.293096954 547180.376813495
 -28.2036687563947 192333.744625935 547181.624218795
 -26.2778197803311 192330.421681813 547182.792314572
 -24.4547313855887 192327.311606424 547183.885556046
 -22.7278204017794 192324.404378772 547184.907470771
 -21.0918589388262 192321.688309671 547185.862171941
 -19.5418747989132 192319.154763649 547186.752698849
 -18.0730544283564 192316.792841109 547187.582886047
 -16.6817605489982 192314.594948838 547188.355405506
 -15.3631345324592 192312.551033775 547189.073793379
 -14.1147446621914 192310.654221424 547189.740468241
 -12.9314537842151 192308.895493528 547190.358601865
 -11.8119191778875 192307.268344235 547190.930482640
 -10.7506866521398 192305.765042622 547191.458829352
 -9.74731057290990 192304.379085044 547191.945929128
 -8.79616684896076 192303.104285083 547192.393957508
 -7.89738984984475 192301.933803045 547192.805319332
 -7.04550831153865 192300.863194807 547193.181577487
 -6.24078166977007 192299.885038414 547193.525341140
 -5.47836241267167 192298.996702167 547193.837535957
 -4.75806790351069 192298.190097122 547194.121005272
 -4.07623840698442 192297.464282067 547194.376080448
 -3.43163372672794 192296.810638160 547194.605790860
 -2.82235289672132 192296.229553102 547194.810000693
 -2.24553188959910 192295.712272646 547194.991786761
 -1.70149392383961 192295.259896360 547195.150762958
 -1.18535449771377 192294.864182480 547195.289825887
 -0.699894786548246 192294.526099212 547195.408635516
 -0.238108164537687 192294.238763689 547195.509610813
 0.194883296305397 192294.002026213 547195.592804534
 0.607908581980385 192293.811297574 547195.659829538
 0.994059328006946 192293.664316775 547195.711480490
 1.36322529324905 192293.559651277 547195.748260878
 1.70773129548082 192293.492107726 547195.771995818
 2.03731579881244 192293.464008439 547195.781869236
 2.34496612272685 192293.466778082 547195.780894706
 2.63870879619100 192293.506629731 547195.766888852
 2.91388230916368 192293.571713332 547195.744016014
 3.17509055157312 192293.671642213 547195.708897900
 3.42172752709422 192293.792087045 547195.666570082
 3.65339719688519 192293.944855499 547195.612883147
 3.87495387661313 192294.114658584 547195.553209870
 4.07989423947337 192294.313601631 547195.483296264
 4.27929340832094 192294.527586858 547195.408096445
 4.46024150533120 192294.766594524 547195.324103253
 4.63983583788531 192295.020261237 547195.234958422
 4.79954285969144 192295.293803993 547195.138828737
 4.96110910906081 192295.583151656 547195.037144666
 5.10238163126652 192295.886338978 547194.930597015
 5.24716175197495 192296.207680255 547194.817669411
 5.37284452053588 192296.536334806 547194.702171694
 5.50164410009221 192296.886116547 547194.579249111
 5.61453861988188 192297.236840353 547194.455995346
 5.72788373859620 192297.611496857 547194.324330758
 5.83060763179818 192297.981702789 547194.194230017
 5.92894946878939 192298.377566818 547194.055112094
 6.02375403862932 192298.765450098 547193.918798522
 6.10769795533479 192299.178743245 547193.773555008
 6.19627349424867 192299.583174408 547193.631425435
 6.26679831900876 192300.010089128 547193.481394332
 6.35010586511607 192300.430421887 547193.333675798
 6.40873230947614 192300.867293357 547193.180144957
 6.48690420170418 192301.303096865 547193.026988802
 6.53577118736656 192301.746645515 547192.871110697
 6.60811885068486 192302.197388443 547192.712703586
 6.64993466300729 192302.644996323 547192.555398186
 6.71508960409392 192303.109726656 547192.392074639
 6.75294152193754 192303.559696310 547192.233938427
 6.80913505923651 192304.036772289 547192.066275378
 6.84616499294284 192304.488509269 547191.907517206
 6.89162604515758 192304.975440040 547191.736390007
 6.93060744513129 192305.429502711 547191.576813591
 6.96402968270552 192305.922949246 547191.403395687
 7.00690772554339 192306.380923797 547191.242443530
 7.02791281429459 192306.876890829 547191.068139004
 7.07539003409720 192307.341074920 547190.905003576
 7.08489841272549 192307.835293970 547190.731312539
 7.13615617984304 192308.308206523 547190.565108555
 7.13657613246873 192308.796672774 547190.393438461
 7.18921468232363 192309.280445049 547190.223416887
 7.18437776389256 192309.760033100 547190.054866128
 7.23463205093051 192310.255770985 547189.880638301
 7.22943827625370 192310.724824428 547189.715788992
 7.27268487130145 192311.232056463 547189.537520623
 7.27247052327239 192311.690831457 547189.376282707
 7.30398662469783 192312.207164169 547189.194815009
 7.31368342310348 192312.658013252 547189.036361647
 7.32956107558793 192313.179099249 547188.853222557
 7.35276791932407 192313.626310453 547188.696046675
 7.35083631634638 192314.146193039 547188.513329737
 7.38896372543348 192314.595448972 547188.355434124
 7.36954310695354 192315.107283408 547188.175544995
 7.42120689510682 192315.564770252 547188.014755463
 7.38752003969538 192316.061846634 547187.840052414
 7.44834740723118 192316.533116068 547187.674417780
 7.40645365176163 192317.010037742 547187.506797521
 7.46941682982327 192317.498794749 547187.335015660
 7.42760440078603 192317.952615292 547187.175513730
 7.48391359020293 192318.459655748 547186.997304972
 7.45157650532684 192318.890757429 547186.845786982
 7.49205328480570 192319.413292298 547186.662131649
 7.47817452002685 192319.825801926 547186.517147118
 7.49491013679489 192320.357363139 547186.330318604
 7.50636175382114 192320.758944797 547186.189173806
 7.49437415860473 192321.289968370 547186.002533633
 7.53431992549775 192321.690905913 547185.861614064
 7.49289228200713 192322.209949123 547185.679184079
 7.55962889299872 192322.621537169 547185.534519986
 7.49305929782127 192323.116944299 547185.360396899
 7.57964243265189 192323.549340539 547185.208418143
 7.49725947740227 192324.011058864 547185.046135237
 7.59222436558021 192324.470884413 547184.884514721
 7.50773314084363 192324.892059474 547184.736481150
 7.59719073322860 192325.380118987 547184.564936156
 7.52779094345358 192325.758075618 547184.432092116
 7.59936108418293 192326.267607918 547184.252999167
 7.56587862103258 192326.603976478 547184.134771498
 7.61575744014747 192327.120093989 547183.953363357
 7.64678681922710 192327.420695567 547183.847705794
 7.69351605724357 192327.923051968 547183.671133675
 7.84017432183791 192328.201226496 547183.573356796
 7.95352246456149 192328.676911614 547183.406157542
 8.32806591747829 192328.972990873 547183.302083423
 8.69009004343507 192329.460947354 547183.130566159
 9.55223229880325 192329.914112557 547182.971268489
 10.5800335887707 192330.638849079 547182.716510644
 12.5071505496200 192331.704451554 547182.341917510
 15.0765724710631 192333.442841437 547181.730814778
 19.2535876543713 192336.477342705 547180.664052284
 25.0412661184810 192341.492497410 547178.900942647
 33.6395755342909 192350.204332358 547175.838064583
 45.4531955904064 192364.474922498 547170.820422470
 61.7754206738546 192388.292129631 547162.445015410
 83.2036216023808 192426.524724660 547148.997677549
 110.323503960314 192487.947686995 547127.387199703
 142.427105963172 192584.186334571 547093.512014510
 176.389827102378 192733.860650095 547040.791756464
 204.842936477737 192962.503083184 546960.172629822
 211.636647080534 193307.964848860 546838.171615627
 167.008793230828 193822.161441540 546656.145892637
 16.0096749383238 194577.758218165 546387.678988539
 -335.196613153874 195672.070289198 545996.637857752
 -1046.17665585090 197234.037509479 545433.442284312
 -2377.64539048732 199428.398933138 544630.756110378
 -4751.43979388005 202458.386010179 543496.113835268
 -8834.02344988314 206561.783241704 541898.689547866
 -15665.2747442918 211994.098698489 539641.641540200
 -26838.0160221110 218988.492416953 536398.882441926
 -44750.7230634385 227665.873841917 531569.019670161
 -72923.8843920879 237844.930906086 523938.828421265
 -116317.525614281 248616.987474657 510940.140108405
 -181368.747447428 257352.395173561 487108.942791839
 -0.000000000000000 0.000000000000000 -0.000000000000000
 -0.000000000000000 -0.000000000000000 0.000000000000000
 -0.000000000000000 -0.000000000000000 -0.000000000000000
 0.000000000000000 0.000000000000000 0.000000000000000
 0.000000000000000 -0.000000000000000 -0.000000000000000
 -0.000000000000000 0.000000000000000 0.000000000000000
 0.000000000000000 0.000000000000000 -0.000000000000000
 -0.000000000000000 0.000000000000000 0.000000000000000
 0.000000000000000 0.000000000000000 0.000000000000000
 0.000000000000000 -0.000000000000000 -0.000000000000000
 -0.000000000000000 0.000000000000000 0.000000000000000
 -0.000000000000000 0.000000000000000 0.000000000000000
 -0.000000000000000 0.000000000000000 -0.000000000000000
 -0.000000000000000 -0.000000000000000 0.000000000000000
 -0.000000000000000 0.000000000000000 0.000000000000000
 0.000000000000000 0.000000000000000 -0.000000000000000
 -0.000000000000000 0.000000000000000 -0.000000000000000
 -0.000000000000000 0.000000000000000 0.000000000000000
 0.000000000000000 -0.000000000000000 0.000000000000000
 0.000000000000000 0.000000000000000 -0.000000000000000
 -0.000000000000000 -0.000000000000000 0.000000000000000
 -0.000000000000000 0.000000000000000 -0.000000000000000
 -0.000000000000000 -0.000000000000000 -0.000000000000000
 -0.000000000000000 0.000000000000000 -0.000000000000000
 0.000000000000000 -0.000000000000000 0.000000000000000
 244704.892118480 219801.506409495 477709.968028091
 176419.717377757 216231.129464865 508448.799753428
 124688.636672933 207387.736111654 527108.215450232
 86786.4992369597 196835.110196383 538631.639382771
 59610.1847298466 186411.472880285 545982.956377831
 40415.6583832517 176963.522922563 550863.400592455
 27016.4305242108 168800.862229432 554234.951435157
 17758.9366429030 161957.956977400 556645.524854930
 11428.1710851998 156338.600040900 558415.292629867
 7146.68452255177 151793.254289814 559738.986361003
 4288.06533299330 148159.314241065 560740.965240919
 2408.99680811674 145281.155192451 561504.748582170
 1198.07581592390 143019.216546500 562089.021697422
 438.111805568365 141253.178725101 562536.529976588
 -21.2734192828651 139882.030061220 562879.220804422
 -283.377462683703 138822.589210334 563141.375164490
 -418.526909751919 138007.362939058 563341.630460445
 -474.105146327189 137382.229509495 563494.363981851
 -481.639474558492 136904.208707474 563610.686255678
 -461.782149482838 136539.447593951 563699.180421602
 -427.791655918359 136261.470927489 563766.466309390
 -387.951448166515 136049.703619896 563817.636863740
 -347.239295985703 135888.246396298 563856.598716562
 -308.471490750103 135764.877937207 563886.338515161
 -273.079649387308 135670.250056354 563909.131578086
 -241.633751152953 135597.246188411 563926.704846694
 -214.188476347600 135540.473071958 563940.364119050
 -190.510526621964 135495.861789056 563951.092865135
 -170.222671151872 135460.355875472 563959.628883427
 -152.894582216187 135431.669217147 563966.523471299
 -138.095242751088 135408.099228550 563972.186896672
 -125.423602045988 135388.382728561 563976.923367494
 -114.521873649608 135371.586636841 563980.957494280
 -105.081536999925 135357.023418093 563984.454723057
 -96.8417652826186 135344.188866178 563987.536353269
 -89.5865613703062 135332.712909452 563990.291397658
 -83.1390562217038 135322.325506790 563992.784800774
 -77.3562233260577 135312.827989388 563995.064337915
 -72.1235163311668 135304.075418429 563997.164862876
 -67.3493484474131 135295.959666081 563999.112377049
 -62.9617217352957 135288.401111291 564000.926028116
 -58.9028689098401 135281.338468621 564002.620554720
 -55.1282986246461 135274.725413539 564004.207098814
 -51.6013985890229 135268.524535763 564005.694658496
 -48.2947683129382 135262.706076933 564007.090391921
 -45.1845549815188 135257.244821554 564008.400364426
 -42.2536365024014 135252.119066247 564009.629796087
 -39.4857018741430 135247.310077080 564010.783192834
 -36.8695999118712 135242.800005071 564011.864846318
 -34.3935243521870 135238.573917063 564012.878347618
 -32.0496056198785 135234.615833222 564013.827537290
 -29.8289165291228 135230.913388153 564014.715388208
 -27.7251757272986 135227.451619175 564015.545494890
 -25.7315707851190 135224.220107951 564016.320361461
 -23.8423198570389 135221.204654962 564017.043397808
 -22.0524394925172 135218.396355466 564017.716743673
 -20.3559468509490 135215.781861177 564018.343603562
 -18.7496122392013 135213.353335729 564018.925859903
 -17.2268427651156 135211.098584471 564019.466439605
 -15.7861063562152 135209.010313180 564019.967094188
 -14.4200580792674 135207.077914806 564020.430369151
 -13.1286899567597 135205.294041425 564020.858028149
 -11.9040387596169 135203.650158381 564021.252119230
 -10.7472408717726 135202.138264314 564021.614562115
 -9.65013341457680 135200.752336012 564021.946802295
 -8.61437220125177 135199.483216920 564022.251035959
 -7.63228176145515 135198.327675488 564022.528038995
 -6.70518435033593 135197.275116079 564022.780352201
 -5.82678639873021 135196.325102370 564023.008081109
 -4.99707384720489 135195.465649899 564023.214099151
 -4.21212194841542 135194.698742526 564023.397931483