# ODT 1.0
# Table Start
# Title: mmArchive Data Table, Fri Apr 16 16:43:39 CEST 2021
# Columns: {Anv_SpinTEvolve:evolver:Total energy} {Anv_SpinTEvolve:evolver:Energy calc count} {Anv_SpinTEvolve:evolver:Max dm/dt} Anv_SpinTEvolve:evolver:dE/dt {Anv_SpinTEvolve:evolver:Delta E} {Anv_SpinTEvolve:evolver:average u} Oxs_UniformExchange:exchange:Energy {Oxs_UniformExchange:exchange:Max Spin Ang} {Oxs_UniformExchange:exchange:Stage Max Spin Ang} {Oxs_UniformExchange:exchange:Run Max Spin Ang} Oxs_DMExchange6Ngbr:dmi:Energy Oxs_UniaxialAnisotropy:uniaxialanisotropy:Energy Oxs_TimeDriver::Iteration {Oxs_TimeDriver::Stage iteration} Oxs_TimeDriver::Stage Oxs_TimeDriver::mx   Oxs_TimeDriver::my   Oxs_TimeDriver::mz   {Oxs_TimeDriver::Last time step} {Oxs_TimeDriver::Simulation time}
# Units:                     J                                        {}                                    deg/ns                             J/s                              J                                 m/s                                  J                                      deg                                            deg                                              deg                                     J                                       J                                    {}                            {}                          {}                   {}                   {}                   {}                          s                                 s                
                    -1.53054405172e-18                        91                                      15981.337598300001               4.4562340819999998e-08             2.30848469897e-21                  1200                                1.3581239966600001e-18                     28.597596267899998                             28.597596267899998                               28.597596267899998                     -4.4194914057400001e-18                     1.53082335735e-18                    14                            14                          0                     0.0058324140000299996 -0.00039662309146899999  0.97793433833599996        5.2242827526500001e-14              2e-12                     
                    -1.4254438082299999e-18                      158                                     17113.6419031                    5.6048830292699997e-08             3.1611977032799999e-21                1200                                1.4262875316999999e-18                     28.561766439700001                             29.031258664599999                               29.031258664599999                     -4.5055611665199997e-18                     1.6538298265900001e-18                  26                            11                          1                     0.0102858280811      0.00140554064156     0.97714806313299996        5.66364587456e-14                3.9999999999999999e-12       
                    -1.31440977717e-18                        231                                     18630.019654200001               5.2430319624399998e-08             5.6093213158399998e-21                1200                                1.49488708056e-18                       26.404189312700002                             28.561766439700001                               29.031258664599999                     -4.6017488517900002e-18                     1.7924519940600001e-18                  38                            11                          2                     0.013106981398199999  0.0044293529554100004  0.97631776549399996        1.06951354144e-13                6.0000000000000003e-12       
                    -1.21930573787e-18                        304                                     19250.555401099999               4.1071089221899997e-08             3.6984329248299998e-21                1200                                1.5569256730099999e-18                     26.603572446200001                             26.603572446200001                               29.031258664599999                     -4.6804025149600003e-18                     1.9041711040799999e-18                  50                            11                          3                     0.014233964467500001  0.0077098721867899997  0.97563048970800004        8.9923756391900004e-14              7.9999999999999998e-12       
                    -1.15097736464e-18                        377                                     19067.939900400001               2.6032213040300001e-08             2.7388446704100002e-21                1200                                1.6201292311600001e-18                     27.4649161038                                  27.4649161038                                    29.031258664599999                     -4.7368561388499999e-18                     1.96574954305e-18                    62                            11                          4                     0.013839231883900001  0.0104021813643      0.97509765333700005        1.04566833437e-13                9.9999999999999994e-12       
                    -1.1142314409099999e-18                      450                                     18828.936560800001               1.0269033276800001e-08             1.1835741072599999e-21                1200                                1.69198689091e-18                       28.3200670065                                  28.3200670065                                    29.031258664599999                     -4.7811526473100001e-18                     1.9749343154900002e-18                  74                            11                          5                     0.012281136227599999  0.011896722602799999  0.97462455413000004        1.12372365827e-13                1.2000000000000001e-11       
                    -1.1069517783800001e-18                      517                                     17719.607994800001              -2.6671219155800002e-09            -2.59098777638e-22                  1200                                1.77492083732e-18                       30.004693409200001                             30.004693409200001                               30.004693409200001                     -4.8299789890700001e-18                     1.94810637336e-18                    86                            11                          6                     0.0101037571898      0.0118937040248      0.97405839604099997        9.9764494932999999e-14              1.4e-11                   
                    -1.1192965436700001e-18                      590                                     16656.752089000001              -9.2411529222199992e-09            -8.5026257152500005e-22                1200                                1.8659732093100001e-18                     32.695316169999998                             32.695316169999998                               32.695316169999998                     -4.8981174662600001e-18                     1.9128477132900001e-18                  98                            11                          7                     0.0080126985184000004  0.010458457494600001  0.97323162646100003        8.9563518611599994e-14              1.6e-11                   
                    -1.1367820371900001e-18                      663                                     16362.2672482                   -8.0637275708299996e-09            -9.3922349763099995e-22                1200                                1.9577298425599999e-18                     35.6741714391                                  35.6741714391                                    35.6741714391                          -4.9907071448599998e-18                     1.8961952651100001e-18                  110                           11                          8                     0.0067148110924799996  0.0080334925010800001  0.972011230512             1.1130474944599999e-13              1.7999999999999999e-11       
                    -1.14720807718e-18                        736                                     16199.513982                    -2.7450407350500001e-09            -3.5026917095599999e-22                1200                                2.03998387072e-18                       36.9781318681                                  37.0169536107                                    37.0169536107                          -5.1017340275900003e-18                     1.9145420796899999e-18                  122                           11                          9                     0.0066660604240600004  0.0053368022219499999  0.97033689650999999        1.1415653693199999e-13              1.9999999999999999e-11       
                    -1.14752553612e-18                        803                                     15085.873507                     1.4961735866900001e-09             1.2697659792e-22                   1200                                2.1023255615800001e-18                     33.406554186000001                             36.9781318681                                    37.0169536107                          -5.2181845214000002e-18                     1.9683334236899998e-18                  134                           11                          10                    0.0079001530619200004  0.0031305363239800001  0.96822762535700002        1.03575213568e-13                2.2000000000000002e-11       
                    -1.1406929973699999e-18                      876                                     16314.311914100001               4.55784559654e-09               3.5929005097100002e-22                1200                                2.1433262253500002e-18                     28.960576786299999                             33.406554186000001                               37.0169536107                          -5.3296375306e-18                        2.04561830788e-18                    146                           11                          11                    0.0100524344236      0.00195304833638     0.96573448146800001        8.7445138879399999e-14              2.4000000000000001e-11       
                    -1.1262163062499999e-18                      949                                     16224.1507079                    8.7938638003299992e-09             9.7170363566000007e-22                1200                                2.1732163218000002e-18                     25.701814347900001                             28.960576786299999                               37.0169536107                          -5.4337083903600002e-18                     2.1342757622999999e-18                  158                           11                          12                    0.0125110310534      0.0019656162978100001  0.96288665547999996        1.1563485522599999e-13              2.6000000000000001e-11       
                    -1.1050054321600001e-18                      1022                                    15048.3623026                    1.1394249026099999e-08             1.32214417657e-21                  1200                                2.2009532330799999e-18                     24.710921218399999                             25.701814347900001                               37.0169536107                          -5.5299873685900002e-18                     2.22402870336e-18                    170                           11                          13                    0.0146287498762      0.0029626041844699998  0.95972697620799996        1.1825479880799999e-13              2.8e-11                   
                    -1.08093243078e-18                        1089                                    14981.4160268                    1.17870207935e-08               1.18496729087e-21                  1200                                2.23177804862e-18                       24.219977715700001                             24.729323243                                     37.0169536107                          -5.6190732581100001e-18                     2.3063627787e-18                     182                           11                          14                    0.01593660945        0.0044836883381800001  0.95632654140999995        1.02261821583e-13                3e-11                     
                    -1.05778192226e-18                        1162                                    15135.252484500001               1.01010135161e-08               8.9225226617199992e-22                1200                                2.2677977648099998e-18                     23.751552253900002                             24.219977715700001                               37.0169536107                          -5.70172426794e-18                       2.3761445808599999e-18                  194                           11                          15                    0.016259254194100001  0.0059894977203999999  0.95274156378200003        9.1236545100699996e-14              3.1999999999999999e-11       
                    -1.0389781376600001e-18                      1229                                    14916.582561900001               6.75463640681e-09               5.7372980557699997e-22                1200                                2.30960282121e-18                       23.626856666199998                             23.753973536                                     37.0169536107                          -5.7803789442500003e-18                     2.4317979853799999e-18                  206                           11                          16                    0.0157220176923      0.0070315133653199996  0.94897962034500005        9.3339839246099997e-14              3.3999999999999999e-11       
                    -1.02659793765e-18                        1302                                    14833.397588600001               4.09381240561e-09               4.6955344417800005e-22                1200                                2.3572528578999999e-18                     23.156953253400001                             23.626856666199998                               37.0169536107                          -5.8596630208800004e-18                     2.47581222533e-18                    218                           11                          17                    0.0146722289323      0.0073548117284799996  0.945000907625             1.2214508610900001e-13              3.5999999999999998e-11       
                    -1.0198879457800001e-18                      1375                                    14950.1989772                    1.6583632460300001e-09             1.2503440133099999e-22                1200                                2.4104458231199998e-18                     22.625753055800001                             23.156953253400001                               37.0169536107                          -5.9445569132599997e-18                     2.5142231443599999e-18                  230                           11                          18                    0.013557194843       0.0069267300273200003  0.94074027361099999        9.9158169729500004e-14              3.7999999999999998e-11       
                    -1.0160178337800001e-18                      1448                                    14933.5911375                    1.3609950373299999e-09             1.10226836664e-22                  1200                                2.46756386172e-18                       22.703742196                                   22.743695833299999                               37.0169536107                          -6.0383938278699997e-18                     2.55481213238e-18                    242                           11                          19                    0.012793464240599999  0.0059109922030599997  0.93613157079300002        1.13091134875e-13                3.9999999999999998e-11       
                    -1.01095759898e-18                        1521                                    14858.1720905                    3.1376961876600002e-09             3.3554764760900002e-22                1200                                2.5266554712199999e-18                     22.559743063599999                             22.703742196                                     37.0169536107                          -6.1421742439299998e-18                     2.6045611737299999e-18                  254                           11                          20                    0.0126549424866      0.0045995038539099996  0.93112543635699996        1.18003662336e-13                4.1999999999999997e-11       
                    -1.00122751724e-18                        1588                                    14750.099917899999               5.9602891030000001e-09             5.7880239401700002e-22                1200                                2.5864352626899999e-18                     22.311348014299998                             22.583735320100001                               37.0169536107                          -6.2548849893000002e-18                     2.6672222093599999e-18                  266                           11                          21                    0.0132087988483      0.0033147654533899999  0.92569945540599996        1.03579768919e-13                4.4000000000000003e-11       
                    -9.8510071156599997e-19                      1661                                    14758.1732362                    8.8131294227200003e-09             7.5653281799999998e-22                1200                                2.64669661923e-18                       22.039565363299999                             22.3209562921                                    37.0169536107                          -6.3741019452399996e-18                     2.7423046144400001e-18                  278                           11                          22                    0.0143207116393      0.00231065946523     0.919860117714             9.2065314859300003e-14              4.6000000000000003e-11       
                    -9.6286276194100002e-19                      1734                                    14848.9578298                    1.1792503046000001e-08             1.29587064868e-21                  1200                                2.7080281569200001e-18                     22.013614417100001                             22.039565363299999                               37.0169536107                          -6.4967037258899998e-18                     2.82581280703e-18                    290                           11                          23                    0.015725794217800002  0.0017054928199499999  0.91363610226500003        1.14871983033e-13                4.8000000000000002e-11       
                    -9.3602650749999995e-19                      1807                                    15050.539882700001               1.3849959944e-08                1.63480152189e-21                  1200                                2.77158692594e-18                       22.2839411687                                  22.2839411687                                    37.0169536107                          -6.6197451789500001e-18                     2.9121317455e-18                     302                           11                          24                    0.017130790703400001  0.0014691176183      0.90706607684600005        1.20531421681e-13                5.0000000000000002e-11       
                    -9.0668533688000002e-19                      1874                                    15338.8701944                    1.4481221734e-08                1.5031542754700001e-21                1200                                2.8383474880200001e-18                     22.482863467200001                             22.482863467200001                               37.0169536107                          -6.7412432250499998e-18                     2.99621040015e-18                    314                           11                          25                    0.018304411782800002  0.00146199712059     0.90018652477899996        1.06089988306e-13                5.2000000000000001e-11       
                    -8.7682204844800003e-19                      1947                                    15522.906545100001               1.39446313952e-08               1.27298706468e-21                  1200                                2.9085356489199999e-18                     22.6848719714                                  22.6848719714                                    37.0169536107                          -6.8605314255699997e-18                     3.0751737282099998e-18                  326                           11                          26                    0.0191294421622      0.0015019831463900001  0.89302306735199999        9.4736467941099998e-14              5.4000000000000001e-11       
                    -8.4792421720299995e-19                      2020                                    15690.0016975                    1.35495466358e-08               1.58999374754e-21                  1200                                2.98150326872e-18                       22.850210272599998                             22.850210272599998                               37.0169536107                          -6.9781658877200006e-18                     3.1487384018e-18                     338                           11                          27                    0.0196121460611      0.0014280331219000001  0.88558610490900003        1.2030813552399999e-13              5.6e-11                   
                    -8.2058558512899999e-19                      2093                                    15876.822237                     1.2900710397599999e-08             1.50866971126e-21                  1200                                3.0563857869999998e-18                     22.9905177441                                  22.9905177441                                    37.0169536107                          -7.0955147842199994e-18                     3.21854341209e-18                    350                           11                          28                    0.019857068690799999  0.00114131452932     0.87787072464100002        1.18949748002e-13                5.8e-11                   
                    -7.9475714817300002e-19                      2160                                    16005.2199406                    1.21725336751e-08               1.2672007301799999e-21                1200                                3.1323224347900001e-18                     23.093418209199999                             23.093418209199999                               37.0169536107                          -7.2141468608500001e-18                     3.2870672778899999e-18                  362                           11                          29                    0.020020649812599999  0.00062026135984899998  0.86986055518600003        1.06584506371e-13                6e-11                     
                    -7.6980948028000003e-19                      2233                                    16070.192359999999               1.15856924591e-08               1.05597014239e-21                  1200                                3.2086881214699999e-18                     23.150235267700001                             23.1513200851                                    37.0169536107                          -7.3352251006499997e-18                     3.3567274989000002e-18                  374                           11                          30                    0.020259021454199999 -8.5974451389400007e-05  0.86153410013700005        9.5291585687900002e-14              6.2000000000000006e-11       
                    -7.4483903078000004e-19                      2306                                    16064.8968515                    1.21707741632e-08               1.42805721169e-21                  1200                                3.2849566953399998e-18                     23.171666951799999                             23.172081544000001                               37.0169536107                          -7.45914310558e-18                       3.4293473794600001e-18                  386                           11                          31                    0.020684470549600001 -0.00088018299916199996  0.85287134642700002        1.20921531521e-13                6.3999999999999999e-11       
                    -7.18752745591e-19                        2379                                    16054.4072915                    1.3113098355e-08                1.53797820644e-21                  1200                                3.3608093827400002e-18                     23.173980272600001                             23.1762061813                                    37.0169536107                          -7.5854637723400006e-18                     3.5059016440199997e-18                  398                           11                          32                    0.021340702604500002 -0.0016499646131099999  0.84385861914000004        1.19637117067e-13                6.6000000000000005e-11       
                    -6.9086401547100003e-19                      2446                                    16013.113823                     1.40091854852e-08               1.4711725179500001e-21                1200                                3.4359261590399999e-18                     23.166046314999999                             23.173980272600001                               37.0169536107                          -7.7131402320700007e-18                     3.5863500575500001e-18                  410                           11                          33                    0.022201070727200001 -0.0023030879734200001  0.83449038804700004        1.07372816097e-13                6.7999999999999998e-11       
                    -6.6108804451500004e-19                      2519                                    15986.6727231                    1.45106462124e-08               1.3410198968e-21                   1200                                3.5102989798899998e-18                     23.156690508499999                             23.166046314999999                               37.0169536107                          -7.8409661106100006e-18                     3.6695790862000001e-18                  422                           11                          34                    0.023187058350300001 -0.00279503351734     0.82476794173199997        9.5702114512699998e-14              7.0000000000000004e-11       
                    -6.2999725285899997e-19                      2592                                    16053.3850427                    1.5261421127199998e-08             1.80362745157e-21                  1200                                3.5843772170100002e-18                     23.1522851024                                  23.1591792593                                    37.0169536107                          -7.9680701403699996e-18                     3.7536956704999997e-18                  434                           11                          35                    0.024198536030400002 -0.00313833519563     0.81469632578499995        1.2089328962900001e-13              7.1999999999999997e-11       
                    -5.9831464850900004e-19                      2665                                    16150.159390299999               1.5509689675800001e-08             1.8213009862200002e-21                1200                                3.65915773057e-18                       23.147128581699999                             23.1522851024                                    37.0169536107                          -8.0942103117199993e-18                     3.8367379326399998e-18                  446                           11                          36                    0.025144727029099999 -0.0033902213551699999  0.80428128680800004        1.1918668239599999e-13              7.4000000000000003e-11       
                    -5.66778586205e-19                        2732                                    16292.5957774                    1.5192351772899999e-08             1.5887791734899999e-21                1200                                3.7355532711300003e-18                     23.137778258899999                             23.147128581699999                               37.0169536107                          -8.2197754600999997e-18                     3.91744360277e-18                    458                           11                          37                    0.0259667600173     -0.00362555048271     0.793527250623             1.0658723340500001e-13              7.5999999999999996e-11       
                    -5.3583360062599995e-19                      2805                                    16398.486704499999               1.44505877177e-08               1.32787291712e-21                  1200                                3.8140045986700002e-18                     23.125683854599998                             23.137999941699999                               37.0169536107                          -8.3455139766399998e-18                     3.9956757773500003e-18                  470                           11                          38                    0.0266473447631     -0.0039078582581700003  0.78243660049800001        9.5251856133999995e-14              7.8000000000000002e-11       