# OOMMF OVF 2.0
#
# Segment count: 1
#
# Begin: Segment
# Begin: Header
#
# Title: Oxs_TimeDriver::Magnetization
# Desc: Oxs vector field output
# Desc:  MIF source file: C:/Users/Victor H. González/Documents/GitHub/Intro-to-magnetism-in-python/domain_wall_conversion_thin_film/drive-40/domain_wall_conversion_thin_film.mif
# Desc:  Iteration: 1478, State id: 10390
# Desc:  Stage: 122, Stage iteration: 11
# Desc:  Stage simulation time: 2e-12 s
# Desc:  Total simulation time: 2.46e-10 s
# meshunit: m
# meshtype: rectangular
# xbase: 1.0000000000000001e-09
# ybase: 1.0000000000000001e-09
# zbase: 1.0000000000000001e-09
# xnodes: 225
# ynodes: 100
# znodes: 1
# xstepsize: 2.0000000000000001e-09
# ystepsize: 2.0000000000000001e-09
# zstepsize: 2.0000000000000001e-09
# xmin: 0
# ymin: 0
# zmin: 0
# xmax: 4.5000000000000003e-07
# ymax: 2.0000000000000002e-07
# zmax: 2.0000000000000001e-09
# valuedim: 3
# valuelabels: Magnetization_x Magnetization_y Magnetization_z
# valueunits: A/m A/m A/m
#
# End: Header
#
# Begin: Data Text
 0.000000000000000 -0.000000000000000 -0.000000000000000
 -0.000000000000000 0.000000000000000 0.000000000000000
 0.000000000000000 0.000000000000000 -0.000000000000000
 0.000000000000000 0.000000000000000 0.000000000000000
 0.000000000000000 0.000000000000000 0.000000000000000
 0.000000000000000 -0.000000000000000 0.000000000000000
 -0.000000000000000 -0.000000000000000 0.000000000000000
 -0.000000000000000 -0.000000000000000 -0.000000000000000
 -0.000000000000000 0.000000000000000 -0.000000000000000
 -0.000000000000000 -0.000000000000000 -0.000000000000000
 0.000000000000000 -0.000000000000000 -0.000000000000000
 0.000000000000000 0.000000000000000 0.000000000000000
 0.000000000000000 0.000000000000000 -0.000000000000000
 0.000000000000000 0.000000000000000 0.000000000000000
 0.000000000000000 0.000000000000000 -0.000000000000000
 -0.000000000000000 0.000000000000000 -0.000000000000000
 0.000000000000000 -0.000000000000000 -0.000000000000000
 -0.000000000000000 -0.000000000000000 0.000000000000000
 0.000000000000000 -0.000000000000000 -0.000000000000000
 -0.000000000000000 -0.000000000000000 -0.000000000000000
 0.000000000000000 -0.000000000000000 0.000000000000000
 0.000000000000000 -0.000000000000000 0.000000000000000
 0.000000000000000 0.000000000000000 -0.000000000000000
 -0.000000000000000 -0.000000000000000 0.000000000000000
 0.000000000000000 -0.000000000000000 0.000000000000000
 250212.102235019 337825.367195654 399584.690865722
 186956.875107437 336692.623805647 433687.910743350
 135868.192889715 331221.288688080 456324.766017242
 96718.9902528848 323586.614525435 471526.393560773
 67705.2789262651 315350.528929489 482047.756046440
 46691.2120950453 307432.557228340 489596.929595293
 31729.0365493826 300295.754730803 495192.616998987
 21224.3489162625 294121.005952653 499442.049561789
 13940.0813816360 288925.992302412 502720.046450447
 8950.30105403126 284644.776896258 505269.475722333
 5574.67151050172 281170.299060962 507259.485829018
 3323.33492875054 278386.354836110 508812.335626815
 1846.38080366451 276176.228846251 510022.824487485
 897.287344543511 274437.648332213 510962.985012913
 304.273912115908 273077.243980464 511692.022839344
 -52.8997632794792 272020.800817255 512254.508154251
 -254.330468783817 271201.978055294 512688.426254103
 -358.011623155452 270571.845940492 513021.196454915
 -397.940945570275 270086.211811359 513277.001074852
 -403.042573654580 269714.449593521 513472.446424487
 -384.324481984797 269428.684090610 513622.464933043
 -358.082397407655 269209.794807908 513737.246222698
 -323.922487451383 269041.730262873 513825.303436277
 -293.099926360443 268911.451224024 513893.515714124
 -259.885198677385 268811.815975191 513945.658656442
 -233.369097620862 268731.934092723 513987.444533083
 -206.143540194277 268671.792446669 514018.896003187
 -185.441585902003 268620.087015463 514045.926414386
 -164.921504001548 268582.681784209 514065.478170340
 -148.870750699770 268546.570815902 514084.348274210
 -134.428159646201 268522.221035931 514097.071319221
 -121.221318901192 268494.867915381 514111.360707478
 -111.996893124668 268477.874622689 514120.237196300
 -100.015882289267 268455.841037815 514131.745187460
 -95.2016464427826 268442.677233024 514138.619417578
 -83.3457329693728 268424.503875419 514148.109762861
 -82.1357732853054 268412.816278809 514154.211604839
 -69.9390377361334 268398.135748716 514161.877072916
 -71.3901148348656 268386.256237569 514168.077933893
 -59.0354683011759 268375.200114571 514173.850441927
 -61.9587886070201 268361.969926359 514180.755433683
 -50.2124961163291 268354.740522715 514184.529831161
 -53.1577105831663 268339.510567652 514192.477816013
 -43.2199707475652 268336.061181675 514194.278849482
 -44.5757728325748 268318.765046619 514203.304478742
 -37.8445822866197 268318.579276687 514203.401955615
 -36.0505442619655 268299.796016189 514213.203017998
 -33.8138083076694 268301.781609586 514212.167146742
 -27.6502439987143 268282.723711868 514222.110953240
 -30.7450140296543 268285.242205375 514220.796807702
 -19.6431880551077 268267.626726777 514229.987519716
 -28.1425656709902 268268.669349342 514229.443199754
 -12.4413223055308 268254.459483138 514236.856723264
 -25.4414238739273 268251.956304249 514238.162033582
 -6.51376238335176 268242.994828221 514242.837269668
 -22.0892929317075 268235.213887560 514246.895511055
 -2.27733233700084 268232.803819553 514248.153083621
 -17.6518920054359 268218.767865155 514255.473722263
 0.0187111467089328 268223.281985305 514253.119583179
 -11.9189842413683 268203.111277575 514263.639545872
 0.390001128192763 268213.723539677 514258.104948118
 -4.98467629938521 268188.811747547 514271.097018481
 -0.828277068605779 268203.434533856 514263.471095855
 2.72351208144210 268176.385581464 514277.577003940
 -2.98871904361911 268191.865591141 514269.504464158
 10.4846522634837 268166.161730816 514282.908128039
 -5.20950514805554 268178.737405368 514276.350590346
 17.3971984179211 268158.166128050 514287.077065114
 -6.51673761129123 268164.129580287 514283.967827094
 22.5502655367590 268152.057423991 514290.262002661
 -6.02999168731982 268148.506804846 514292.113746623
 25.2218338414065 268147.137191312 514292.827268631
 -3.15639521884293 268132.666095263 514300.372703232
 25.0610614112348 268142.442275812 514295.275131228
 2.24947642342109 268117.604149773 514308.225036238
 22.2105099457493 268136.907748071 514298.160807518
 9.80199799320445 268104.322517193 514315.148670072
 17.3336545667651 268129.570735373 514301.986187890
 18.6078695024243 268093.606243926 514320.734508025
 11.5316001806842 268119.772888260 514307.094305892
 27.4053886566486 268085.823664532 514324.790768492
 6.15645302285488 268107.315430036 514313.588557601
 34.8006259271136 268080.796198875 514327.410798116
 2.55253472366105 268092.526852078 514321.297478096
 39.5548301701642 268077.775193197 514328.985069751
 1.77588201284549 268076.218867771 514329.797770268
 40.8601773454840 268075.539858774 514330.150059155
 4.35286103804948 268059.529127978 514338.496347239
 38.5390939602553 268072.601912710 514331.681523206
 10.1365099758208 268043.675471229 514346.758458849
 33.1170350722274 268067.476166392 514334.353436598
 18.3024665545316 268029.670257370 514354.056586264
 25.7460572438599 268058.958871222 514338.792923515
 27.4966042446245 268018.057812189 514360.107250280
 17.9899055673459 268046.351357680 514345.363739384
 36.1099341840974 268008.737689989 514364.963054339
 11.5129753621219 268029.576468892 514354.105656169
 42.6227245110948 268000.919683233 514369.036035651
 7.73874096032581 268009.157724881 514364.745405157
 45.9394433830992 267993.226782922 514373.043897175
 7.55306550817848 267986.061864587 514376.778820022
 45.6358173490814 267983.927409825 514377.888878767
 11.1211942763692 267961.438052321 514389.606809130
 42.0594875889192 267971.247530875 514384.495030465
 17.8639114441355 267936.313761204 514402.693858555
 36.2606108195322 267953.694522749 514393.639420995
 26.6019825421851 267911.320533380 514415.710901597
 29.7687158524869 267930.322075874 514405.814144963
 35.8367826490560 267886.517704570 514428.627068755
 24.2673446461336 267900.879351226 514421.148723432
 44.1001328358811 267861.359222553 514441.726817163
 21.2408599480111 267865.814967782 514439.408210988
 50.2884364671398 267834.814010077 514455.547035174
 21.6737562409510 267826.141435321 514460.064042017
 53.9009638166241 267805.613635749 514470.747856344
 25.8704264453026 267783.200352400 514482.416550602
 55.1280233148209 267772.572087163 514487.946018880
 33.4345566985738 267738.394012426 514505.734908541
 54.7737396155290 267734.907881756 514507.547176311
 43.4080700310183 267692.957391916 514529.375914057
 54.0390529964842 267692.501091942 514529.612305183
 54.5294237214368 267647.832727114 514552.849241961
 54.2228268614842 267646.035755441 514553.783976255
 65.5411324416813 267603.680129561 514575.811795964
 56.4152634138099 267597.007054605 514579.283135977
 75.4654587044668 267561.020236059 514597.993345489
 61.2551608590864 267547.605286613 514604.970004376
 83.7786287204615 267520.468984066 514619.074321665
 68.8024791981117 267500.516021223 514629.448433141
 90.4443699828442 267482.999177512 514638.549829702
 78.5460501324337 267458.689846138 514651.185810648
 95.8081378808595 267450.154375464 514655.618589112
 89.5318159752132 267425.131862066 514668.622350936
 100.392313264039 267424.149982399 514669.130536867
 100.568990727903 267402.742961238 514680.253111274
 104.658619093742 267407.822453668 514677.613207686
 110.457146854590 267394.219504638 514684.679366624
 108.809638385128 267404.424115660 514679.377985785
 118.179468636175 267401.994747928 514680.638103322
 112.685571400089 267417.298417431 514672.688034915
 123.024392334655 267428.191772862 514667.025473846
 115.780912617359 267449.497590006 514655.955793415
 124.623306764082 267474.557062666 514642.930382961
 117.368934677390 267503.413712040 514627.933440207
 122.917178947885 267542.355013056 514607.688599223
 116.691280576760 267580.483412623 514587.865461101
 118.081748539181 267632.222077714 514560.958257082
 113.154587790722 267681.001467267 514535.585406413
 110.444871391880 267743.998931264 514502.807415300
 106.479633512730 267804.049880431 514471.553664269
 100.421593477376 267876.574399855 514433.796326897
 96.7684037554898 267947.527571048 514396.843987634
 88.4779292068659 268027.782097635 514355.033216823
 84.4827506796449 268108.257951767 514313.090326053
 75.1198845030968 268194.388148600 514268.183463260
 70.3543809265212 268282.156838836 514222.402635439
 60.8950342563060 268372.196552654 514175.417935648
 55.2608754419109 268464.454055381 514127.254534305
 46.3916504447937 268556.279602863 514079.295958983
 40.1027271543354 268649.968984890 514030.342057926
 32.2239815351474 268741.317345116 513982.590476785
 25.7052783069302 268833.436241913 513934.414976856
 18.9997523590750 268922.006816333 513888.075254608
 12.7550135362429 269009.862744787 513842.090124331
 7.27535529491748 269093.484608419 513798.303314021
 1.77023967113106 269174.879710499 513755.665788421
 -2.48602703034959 269251.701723538 513715.408677605
 -6.89374355041117 269325.044570037 513676.961056094
 -9.92904557555928 269393.703346145 513640.956796539
 -12.9955442941395 269458.060065018 513607.197863418
 -14.7607176315834 269517.802609021 513575.850151588
 -16.2895013190539 269572.920402258 513546.921245226
 -16.6028498121871 269623.704234155 513520.260398164
 -16.2955328406343 269670.080930298 513495.907661884
 -14.6927329731792 269712.752252071 513473.495963265
 -11.9069093734383 269751.911106282 513452.925118490
 -7.39855973272055 269788.698892026 513433.596383611
 -0.836169541382816 269824.006408381 513415.042207600
 8.35848913144005 269859.830491491 513396.213286813
 20.8414955902873 269898.553491876 513375.856842358
 37.1901829231001 269944.141543256 513351.886198312
 57.8940108214397 270002.116979187 513321.393938574
 82.6963180924907 270080.823872394 513279.983768827
 110.104906347566 270192.282962614 513221.314935731
 135.810860639902 270353.959589287 513136.159405868
 150.601384840305 270590.774308147 513011.315838685
 136.372884238257 270937.916397882 512828.067543511
 59.9840232819418 271444.312069449 512560.222653943
 -136.861515296115 272176.836209386 512171.603176099
 -553.449762932187 273225.077117665 511612.891674366
 -1354.76630282303 274706.173769509 510817.660913541
 -2809.38482386291 276768.679266252 509697.170419972
 -5346.70505956861 279593.528818459 508132.730089145
 -9642.03453918516 283388.455410379 505962.463538616
 -16740.2167814969 288369.505575363 502954.066885168
 -28229.1087820860 294717.490204445 498743.138684596
 -46466.3797793864 302486.214267112 492689.522649457
 -74825.5598147468 311416.748136178 483550.146912084
 -117793.074320357 320578.945702356 468779.192386484
 -180331.714078807 327780.648424621 443215.883532771
 -0.000000000000000 -0.000000000000000 -0.000000000000000
 -0.000000000000000 -0.000000000000000 -0.000000000000000
 0.000000000000000 0.000000000000000 -0.000000000000000
 0.000000000000000 -0.000000000000000 0.000000000000000
 -0.000000000000000 -0.000000000000000 -0.000000000000000
 -0.000000000000000 -0.000000000000000 -0.000000000000000
 0.000000000000000 0.000000000000000 0.000000000000000
 0.000000000000000 0.000000000000000 -0.000000000000000
 0.000000000000000 0.000000000000000 -0.000000000000000
 0.000000000000000 0.000000000000000 -0.000000000000000
 -0.000000000000000 0.000000000000000 0.000000000000000
 -0.000000000000000 -0.000000000000000 0.000000000000000
 0.000000000000000 -0.000000000000000 -0.000000000000000
 -0.000000000000000 -0.000000000000000 -0.000000000000000
 -0.000000000000000 0.000000000000000 0.000000000000000
 -0.000000000000000 0.000000000000000 0.000000000000000
 -0.000000000000000 -0.000000000000000 -0.000000000000000
 0.000000000000000 0.000000000000000 -0.000000000000000
 0.000000000000000 -0.000000000000000 0.000000000000000
 -0.000000000000000 -0.000000000000000 -0.000000000000000
 -0.000000000000000 0.000000000000000 0.000000000000000
 0.000000000000000 -0.000000000000000 -0.000000000000000
 0.000000000000000 0.000000000000000 -0.000000000000000
 0.000000000000000 -0.000000000000000 0.000000000000000
 -0.000000000000000 0.000000000000000 0.000000000000000
 248202.324711419 272590.677331880 447761.017329105
 182296.266439407 269407.588402812 480195.400387420
 130926.848394027 261574.031094388 500836.486916278
 92369.0400696358 252021.851169036 514152.649482570
 64182.3500780430 242372.496573498 523006.882213981
 43965.9460181912 233448.822875301 529120.631509358
 29681.2434322716 225606.934312756 533498.392667039
 19712.3274039707 218937.977017876 536728.596562209
 12837.9902282308 213398.331221490 539162.626893578
 8151.46562632811 208872.665249486 541022.886133035
 4998.67007888741 205227.871305737 542454.176992636
 2907.47770065590 202319.564106231 543560.797476496
 1545.70646468709 200024.102909094 544415.254237918
 679.176692545985 198219.760668082 545076.568199101
 143.677782678247 196816.372406741 545585.277394237
 -170.262775362286 195723.494290649 545978.282345777
 -344.544560416385 194883.062971202 546278.750324418
 -423.854812955525 194231.770189695 546510.603553193
 -452.940483254319 193735.019429250 546686.872982758
 -442.081702591493 193350.742925805 546822.909883819
 -421.626888321747 193058.282800556 546926.248842444
 -382.822862609516 192832.640528911 547005.874002559
 -352.060733688681 192658.639396418 547067.203110515
 -310.105197947261 192526.353105165 547113.797298872
 -282.751795012110 192419.228026157 547151.497062048
 -246.389063590723 192341.863020422 547178.715797922
 -225.178719184962 192271.334268706 547203.511787959
 -196.926808004578 192226.534781672 547219.261855485
 -180.271221583291 192175.410419498 547237.223818322
 -160.640825030252 192150.043930681 547246.137320277
 -145.634089217655 192109.186570258 547260.485715921
 -134.673654046482 192095.118467906 547265.426757262
 -118.484293111183 192060.404656322 547277.614127165
 -116.083211010808 192052.012244611 547280.559783996
 -96.6725105900390 192022.451289235 547290.936207880
 -102.335267358737 192015.297744133 547293.445018050
 -78.8868276034755 191991.762930612 547301.705409059
 -91.3572416465868 191982.058903810 547305.107515825
 -64.5273677835099 191966.301336896 547310.638474396
 -81.4887135166819 191950.898672546 547316.038371242
 -53.4605634782100 191944.678930208 547318.223131980
 -71.4577722138315 191921.393061903 547326.386883517
 -45.7423347635852 191925.691183991 547324.882470354
 -60.4122870235254 191893.763271043 547336.075887596
 -41.3557360651436 191908.117898194 547331.044774984
 -47.9864628793695 191868.629876689 547344.888134110
 -39.9971601393149 191890.710802980 547337.147933295
 -34.3611821149692 191846.777759004 547352.548804513
 -40.9431511842287 191872.308515790 547343.599166446
 -20.2719081973552 191828.908557384 547358.812325820
 -43.0254658806629 191852.024737207 547350.709100703
 -6.92677945370908 191815.393648149 547363.548943137
 -44.7300067562093 191829.452359507 547358.620290827
 4.18229907231333 191806.065093312 547366.817934672
 -44.4149603854089 191804.823487506 547367.251225572
 11.5648114231174 191800.092762689 547368.910591823
 -40.6177014790369 191779.069740397 547376.275298546
 14.0723115550950 191795.991124800 547370.347744948
 -32.3942025102576 191753.742551927 547385.148837584
 11.2292091950788 191791.779447017 547371.823544519
 -19.6158300932862 191730.780202792 547393.192813035
 3.47599011613683 191785.287957470 547374.098136720
 -3.14355470693016 191712.143874208 547399.720388377
 -7.74751785069683 191774.566559146 547377.854467121
 15.1862779018770 191699.382209411 547404.189452279
 -20.1269541867852 191758.320467140 547383.545721396
 32.7966652767713 191693.213241258 547406.348996447
 -30.8140558296788 191736.277310339 547391.266840883
 46.8087238694100 191693.224519669 547406.344028086
 -36.9414173386005 191709.389769240 547400.683694894
 54.6153298093394 191697.780363885 547404.747897499
 -36.2215432266975 191679.800333026 547411.045588496
 54.4768930575885 191704.188674387 547402.503718208
 -27.5055686996723 191650.539056824 547421.291258088
 46.0050203424461 191709.124797802 547400.775805807
 -11.1669329350935 191624.984311138 547430.237804833
 30.4086197995912 191709.248348026 547400.733624966
 10.8028013454298 191606.177919860 547436.820524746
 10.4173322688786 191701.895253430 547403.309496501
 35.0449221135209 191596.133893091 547440.334875934
 -10.1373736613290 191685.695532596 547408.982412070
 57.4137304892739 191595.299109283 547440.625148416
 -27.0254287834674 191660.967448086 547417.640222244
 73.7865387681216 191602.305597476 547438.170979406
 -36.4748635425076 191629.774512594 547428.559896026
 80.9385820729050 191614.098077451 547434.042480837
 -36.0012552589292 191595.599178917 547440.521955748
 77.2875186231501 191626.438300994 547429.723499478
 -25.0175190692456 191562.673378264 547452.044970421
 63.3276608534018 191634.698587859 547426.833729173
 -5.06607719737156 191535.091839163 547461.695982923
 41.6345364081738 191634.782664014 547426.806376781
 20.4072500484307 191515.896862871 547468.410807742
 16.4135175370641 191623.971608208 547430.592162781
 46.7138047761879 191506.343883773 547471.750933407
 -7.32864271614786 191601.498235811 547438.458477374
 68.8869581228923 191505.526570686 547472.034488951
 -24.8179996418099 191568.706331403 547449.933910472
 82.7411831417524 191510.463162361 547470.305727383
 -32.5251118734076 191528.742310035 547463.916446786
 85.7841754481849 191516.640129322 547468.144456508
 -28.9211969238055 191485.836353303 547478.925292691
 77.7685793360568 191518.901211870 547467.354671167
 -14.7977162561852 191444.331283405 547493.440874389
 60.7507150407103 191512.486319746 547469.600884817
 6.93235410124351 191407.683520473 547506.254431188
 38.6383114456367 191493.986561449 547476.074014093
 31.9099055726097 191377.672174528 547516.744561130
 16.3298848502009 191461.998933126 547487.262589612
 55.3239467967704 191354.004724832 547525.014784741
 -1.35425806042485 191417.334180741 547502.880515988
 72.9889286016737 191334.412494074 547531.859591900
 -10.6995491158436 191362.738546050 547521.965022113
 82.2504473918357 191315.211062864 547538.567820419
 -9.84426520970301 191302.208831957 547543.116840222
 82.5097569852095 191292.190284599 547546.610918432
 0.922562791118074 191240.080126210 547564.819681168
 75.2544759047551 191261.623087843 547557.290035086
 19.3686706957185 191180.119676544 547585.757179017
 63.6061763806016 191221.159708205 547571.423682886
 41.9616431055123 191124.853717338 547605.047941258
 51.5133495143189 191170.409159109 547589.145261585
 64.7711307889881 191075.288429031 547622.342455513
 42.8004476403309 191111.093289213 547609.850340480
 84.3947921679592 191031.080037260 547637.762884662
 40.3095865567356 191046.768750784 547632.294998224
 98.6762122523190 190991.091180342 547651.708070692
 45.3354322784393 190982.218846957 547654.809190051
 107.047484794558 190954.171960982 547664.580515786
 57.4672316219868 190922.691010062 547675.563408661
 110.436075122259 190919.949589648 547676.510955655
 74.8402368903498 190873.176654443 547692.819774717
 110.795032317214 190889.413696626 547687.154736186
 94.6936587781204 190837.894783911 547705.111303114
 110.413847139379 190865.143795192 547695.613176537
 114.062454016789 190820.062861014 547711.320496003
 111.216507943348 190851.124251178 547700.498450521
 130.413208042498 190821.944224269 547710.661385065
 114.240668504813 190852.202009032 547700.122272556
 142.071661258223 190845.080345860 547702.597331275
 119.423703579944 190873.331083685 547692.758048705
 148.366404735116 190890.572049668 547686.742116294
 125.721463392453 190918.789922250 547676.911918640
 149.503637383677 190959.277069057 547662.790547181
 131.486626857717 190991.543219071 547651.543529337
 146.262308329263 191051.837004464 547630.508814618
 134.966595240554 191092.857988972 547616.199002207
 139.635324139913 191168.516713266 547589.790554596
 134.764438892408 191222.199820855 547571.047567545
 130.533600116539 191308.909015570 547540.760393463
 130.140852045917 191377.360374843 547516.839009830
 119.625108545088 191471.605324969 547483.890214235
 121.103165484769 191554.726114351 547454.812963846
 107.321735481460 191653.945984447 547420.088661931
 108.301596913389 191749.599724927 547386.590332732
 93.8755904598942 191851.942698336 547350.731496951
 92.8061744861064 191956.519717568 547314.065162712
 79.5190779974523 192060.419746441 547277.615880220
 75.8546125242862 192169.567404994 547239.300132451
 64.5835606308185 192273.365825878 547202.840474126
 58.6432079198803 192382.679524132 547164.418781127
 49.5535953798414 192484.439177062 547128.630414396
 42.1953981398018 192589.985829744 547091.487392782
 35.0459890777012 192687.536313686 547057.137894334
 27.3070857357558 192786.167675574 547022.387848330
 21.7337772456777 192877.325743422 546990.252876327
 14.5498384486372 192966.803741200 546958.693542947
 10.2569571915315 193049.664526592 546929.453331017
 4.31691761758438 193128.654840814 546901.565787429
 1.17246180438955 193201.856134279 546875.710545728
 -3.08253590100156 193269.858622309 546851.681663877
 -5.00069673079431 193332.772619706 546829.442336611
 -7.24779879746835 193390.069159429 546809.181614557
 -7.58290680735276 193442.962664485 546790.471879390
 -7.37051492827178 193490.704997847 546773.579304187
 -5.32560666199885 193535.035700198 546757.889680763
 -1.72025571112098 193575.712045450 546743.489858944
 4.21796780957528 193614.936949986 546729.600599841
 13.0192130604728 193653.719393429 546715.864774007
 25.3201993136673 193695.377376224 546701.106768561
 42.0538389189794 193743.385151905 546684.094282388
 63.6419493316822 193803.941406734 546662.627444860
 90.4251528435353 193885.441652285 546633.723199174
 121.133456800053 194000.659073432 546592.837133602
 152.372277956819 194167.857102428 546533.457393910
 175.790491234481 194413.413369029 546446.149039324
 174.856705958114 194774.691561517 546317.479998809
 118.415002825601 195303.945613822 546128.514917103
 -48.9619340510502 196073.045259786 545852.872599643
 -422.727639735993 197178.923120548 545454.208507335
 -1162.79057452874 198749.321280890 544882.882102627
 -2531.18181671027 200947.875149680 544071.267934119
 -4949.33159478128 203976.481487176 542926.421457711
 -9083.67857964931 208071.719718601 541316.585961307
 -15971.6953516579 213488.674678538 539043.125113006
 -27202.8719039344 220460.838549429 535777.026780974
 -45168.4310563401 229111.575927067 530912.138316807
 -73377.2385905802 239263.721367602 523229.063120682
 -116768.569340017 250015.793182791 510154.098653990
 -181746.035316022 258748.315311732 486228.020552342
 -0.000000000000000 0.000000000000000 -0.000000000000000
 -0.000000000000000 -0.000000000000000 0.000000000000000
 -0.000000000000000 -0.000000000000000 -0.000000000000000
 0.000000000000000 0.000000000000000 0.000000000000000
 0.000000000000000 -0.000000000000000 -0.000000000000000
 -0.000000000000000 0.000000000000000 0.000000000000000
 0.000000000000000 0.000000000000000 -0.000000000000000
 -0.000000000000000 0.000000000000000 0.000000000000000
 0.000000000000000 0.000000000000000 0.000000000000000
 0.000000000000000 -0.000000000000000 -0.000000000000000
 -0.000000000000000 0.000000000000000 0.000000000000000
 -0.000000000000000 0.000000000000000 0.000000000000000
 -0.000000000000000 0.000000000000000 -0.000000000000000
 -0.000000000000000 -0.000000000000000 0.000000000000000
 -0.000000000000000 0.000000000000000 0.000000000000000
 0.000000000000000 0.000000000000000 -0.000000000000000
 -0.000000000000000 0.000000000000000 -0.000000000000000
 -0.000000000000000 0.000000000000000 0.000000000000000
 0.000000000000000 -0.000000000000000 0.000000000000000
 0.000000000000000 0.000000000000000 -0.000000000000000
 -0.000000000000000 -0.000000000000000 0.000000000000000
 -0.000000000000000 0.000000000000000 -0.000000000000000
 -0.000000000000000 -0.000000000000000 -0.000000000000000
 -0.000000000000000 0.000000000000000 -0.000000000000000
 0.000000000000000 -0.000000000000000 0.000000000000000
 244604.952068009 219704.014361959 477805.989390095
 176310.866328777 216132.345219398 508528.551572436
 124575.596333410 207284.163774821 527175.678731813
 86672.9076337408 196723.545638399 538690.684599028
 59496.2496975194 186288.744553788 546037.269721129
 40303.9553708754 176827.972503821 550915.110812592
 26905.7808214313 168649.799098362 554286.319714343
 17652.1048588872 161792.026974845 556697.173696277
 11323.4943984148 156155.056328921 558468.778767015
 7046.73793227946 151595.140193627 559793.941512579
 4191.26458913816 147943.006725392 560798.805332353
 2316.93560255458 145051.904355285 561564.401339970
 1110.11131404686 142771.938758284 562152.062307052
 353.911113596273 140994.971343327 562601.362247567
 -100.255884163480 139606.297773941 562947.663260637
 -360.444026470187 138537.628368248 563211.501663634
 -488.893255259616 137705.698127697 563415.389997956
 -545.035464278587 137072.234019173 563569.787690341
 -544.013447672811 136578.889364101 563689.551995988
 -527.480650481793 136205.548403935 563779.895303253
 -482.937933123793 135914.507794978 563850.169230978
 -448.984192019123 135692.557132023 563903.651657061
 -396.062946836266 135521.409761578 563944.847152961
 -364.937919548940 135384.877556226 563977.660682940
 -316.675883862186 135285.054042060 564001.643498688
 -293.141346553965 135194.768613842 564023.305021699
 -253.872731128655 135138.092606103 564036.906128864
 -236.246221698983 135071.511212719 564052.861925578
 -207.487560827812 135041.496860049 564060.059811639
 -191.792082989807 134986.487246192 564073.232370346
 -174.466595008608 134972.869028004 564076.496751776
 -156.420206856576 134923.986718108 564088.196420392
 -151.316192047176 134919.423201307 564089.289338520
 -127.441213078849 134875.632213973 564099.767411420
 -134.858825568559 134873.903661402 564100.178979082
 -103.242630157751 134837.024835220 564109.001944256
 -122.351716323596 134832.298000156 564110.127941393
 -83.2046236573595 134805.735276631 564116.483373352
 -111.446404421599 134792.606211497 564119.615764610
 -67.4107431517660 134780.115886298 564122.607078876
 -100.184833356912 134754.190569187 564128.795654895
 -56.2764880753135 134758.635728204 564127.739904386
 -87.0854758690191 134717.401818480 564137.584338606
 -50.1599423591022 134739.576205214 564132.293073193
 -71.2987311995708 134683.291828697 564145.731011657
 -49.0071269030609 134720.996189378 564136.730575171
 -52.7721057158907 134653.306381628 564152.890886504
 -52.0879948862206 134700.902794438 564141.528406839
 -32.3505871013143 134628.918505655 564158.712824182
 -57.8790698601574 134677.563124708 564147.100179380
 -11.7429400243760 134611.218131163 564162.937293250
 -64.1361290229968 134649.877862386 564153.708024862
 6.69084714512618 134600.516671064 564165.490673717
 -68.1721016905053 134617.722429500 564161.381308982
 20.3353643970627 134596.050527298 564166.555875945
 -67.3141939839671 134582.156910837 564169.866715714
 26.8541754136661 134595.870177181 564166.598630316
 -59.4678257778705 134545.420107819 564178.629860781
 24.7711545539117 134596.978841414 564166.334225248
 -43.6745726779571 134510.659400896 564186.919912246
 13.9744495200919 134595.739210022 564166.630341802
 -20.5295307824908 134481.403642802 564193.895440920
 -3.98875766153748 134588.506432963 564168.356007526
 7.66914111842918 134460.851436894 564198.794195849
 -25.9344917731667 134572.383448353 564172.201495635
 37.1246532742721 134451.106816967 564201.115292635
 -47.4337394759028 134545.946078168 564178.505567139
 63.1153461758652 134452.531555956 564200.773461582
 -63.5476586919217 134509.764879657 564187.131290420
 80.8659601026307 134463.384103930 564198.184857073
 -69.7936069600348 134466.569014340 564197.427277335