# OOMMF OVF 2.0
#
# Segment count: 1
#
# Begin: Segment
# Begin: Header
#
# Title: Oxs_TimeDriver::Magnetization
# Desc: Oxs vector field output
# Desc:  MIF source file: C:/Users/Victor H. González/Documents/GitHub/Intro-to-magnetism-in-python/domain_wall_conversion_thin_film/drive-40/domain_wall_conversion_thin_film.mif
# Desc:  Iteration: 4262, State id: 29950
# Desc:  Stage: 354, Stage iteration: 11
# Desc:  Stage simulation time: 2e-12 s
# Desc:  Total simulation time: 7.1e-10 s
# meshunit: m
# meshtype: rectangular
# xbase: 1.0000000000000001e-09
# ybase: 1.0000000000000001e-09
# zbase: 1.0000000000000001e-09
# xnodes: 225
# ynodes: 100
# znodes: 1
# xstepsize: 2.0000000000000001e-09
# ystepsize: 2.0000000000000001e-09
# zstepsize: 2.0000000000000001e-09
# xmin: 0
# ymin: 0
# zmin: 0
# xmax: 4.5000000000000003e-07
# ymax: 2.0000000000000002e-07
# zmax: 2.0000000000000001e-09
# valuedim: 3
# valuelabels: Magnetization_x Magnetization_y Magnetization_z
# valueunits: A/m A/m A/m
#
# End: Header
#
# Begin: Data Text
 0.000000000000000 -0.000000000000000 -0.000000000000000
 -0.000000000000000 0.000000000000000 0.000000000000000
 0.000000000000000 0.000000000000000 -0.000000000000000
 0.000000000000000 0.000000000000000 0.000000000000000
 0.000000000000000 0.000000000000000 0.000000000000000
 0.000000000000000 -0.000000000000000 0.000000000000000
 -0.000000000000000 -0.000000000000000 0.000000000000000
 -0.000000000000000 -0.000000000000000 -0.000000000000000
 -0.000000000000000 0.000000000000000 -0.000000000000000
 -0.000000000000000 -0.000000000000000 -0.000000000000000
 0.000000000000000 -0.000000000000000 -0.000000000000000
 0.000000000000000 0.000000000000000 0.000000000000000
 0.000000000000000 0.000000000000000 -0.000000000000000
 0.000000000000000 0.000000000000000 0.000000000000000
 0.000000000000000 0.000000000000000 -0.000000000000000
 -0.000000000000000 0.000000000000000 -0.000000000000000
 0.000000000000000 -0.000000000000000 -0.000000000000000
 -0.000000000000000 -0.000000000000000 0.000000000000000
 0.000000000000000 -0.000000000000000 -0.000000000000000
 -0.000000000000000 -0.000000000000000 -0.000000000000000
 0.000000000000000 -0.000000000000000 0.000000000000000
 0.000000000000000 -0.000000000000000 0.000000000000000
 0.000000000000000 0.000000000000000 -0.000000000000000
 -0.000000000000000 -0.000000000000000 0.000000000000000
 0.000000000000000 -0.000000000000000 0.000000000000000
 250287.288319217 337897.006059452 399477.016362485
 187042.049257403 336765.714291842 433594.425110721
 135957.094031517 331297.920773291 456242.650651821
 96808.1153540110 323668.620914586 471451.813695582
 67793.2894284107 315439.718028573 481977.026629413
 46777.0596739337 307530.394662700 489527.285293542
 31812.6988215877 300403.697853354 495121.773415105
 21305.1561872470 294239.665944140 499368.710778837
 14018.2339967932 289056.325574478 502642.944604808
 9025.21784931380 284786.459609297 505188.299415154
 5646.56488196503 281324.009596395 507173.459409739
 3391.87823122777 278551.033413457 508721.748057186
 1911.65995994213 276352.567051602 509927.057764331
 959.436734462052 274624.106275483 510862.681876006
 363.028540579189 273274.690958369 511586.563048607
 3.24075489480967 272227.465761790 512144.712824814
 -201.684748339895 271418.882355886 512573.652877266
 -307.277043135947 270797.254456917 512902.283636381
 -350.834508518757 270321.086982296 513153.375559255
 -357.085219028478 269957.416630102 513344.782477185
 -342.162804694468 269680.287003400 513490.433919054
 -316.379532258267 269469.411765333 513601.144884664
 -286.147060974802 269309.039299375 513685.272780432
 -255.297221421298 269187.009918870 513749.246728661
 -225.983153474629 269093.986326769 513797.990901467
 -199.288531091475 269022.833525802 513835.260882153
 -175.635223375435 268968.124582774 513863.909134212
 -155.052347898197 268925.749934663 513886.093391180
 -137.351159867310 268892.610953618 513903.439285247
 -122.235976307445 268866.381006746 513917.166693915
 -109.372748634502 268845.320271356 513928.187401503
 -98.4292307625782 268828.132945099 513937.180255466
 -89.0972239828955 268813.857620554 513944.648783155
 -81.1029281992181 268801.783665192 513950.965093681
 -74.2105220153797 268791.387484954 513956.403313269
 -68.2212647896084 268782.284522588 513961.164751460
 -62.9706394165677 268774.192807518 513965.397001944
 -58.3242152386169 268766.905996726 513969.208065262
 -54.1733825927255 268760.272840811 513972.677102370
 -50.4311443014758 268754.182432687 513975.862158562
 -47.0282326540163 268748.552790905 513978.806140039
 -43.9098707662147 268743.323046894 513981.540903597
 -41.0326948368304 268738.447170906 513984.090540250
 -38.3626562677891 268733.889992841 513986.473457835
 -35.8726657984771 268729.623809919 513988.704156163
 -33.5414914992582 268725.626424695 513990.794253772
 -31.3519165224924 268721.879394547 513992.753403897
 -29.2903972644141 268718.367026194 513994.589820602
 -27.3455586933109 268715.075620006 513996.310674264
 -25.5083630409202 268711.992802046 513997.922441013
 -23.7708531964851 268709.107444580 513999.430944513
 -22.1265854941519 268706.408981454 514000.841714005
 -20.5696253861569 268703.887849466 514002.159753703
 -19.0950010352913 268701.534604593 514003.390004889
 -17.6980333043541 268699.340787611 514004.536893483
 -16.3745725485911 268697.297785918 514005.604925101
 -15.1207934279309 268695.398019492 514006.598065149
 -13.9329961658800 268693.633600564 514007.520439533
 -12.8080065003132 268691.997690012 514008.375625637
 -11.7423667101012 268690.483103080 514009.167381235
 -10.7334461126981 268689.083624338 514009.898957118
 -9.77792523820746 268687.792788466 514010.573734486
 -8.87364115963230 268686.604885321 514011.194699549
 -8.01738284138748 268685.514199439 514011.764841141
 -7.20737337078936 268684.515406296 514012.286943549
 -6.44053957067989 268683.603567833 514012.763588923
 -5.71538336835019 268682.773635533 514013.197417004
 -5.02904827822768 268682.021457781 514013.590598604
 -4.38017711168180 268681.342179003 514013.945672395
 -3.76624662804714 268680.732408889 514014.264411055
 -3.18587870428170 268680.187445541 514014.549272760
 -2.63702019778881 268679.704586555 514014.801670465
 -2.11810410757430 268679.279302242 514015.023972200
 -1.62768011895321 268678.909447019 514015.217299752
 -1.16384470688709 268678.590746682 514015.383887509
 -0.725848776529669 268678.321422522 514015.524665403
 -0.311356526361557 268678.097600306 514015.641658680
 0.0796483306715027 268677.917629469 514015.735730226
 0.449946079918583 268677.778225154 514015.808597160
 0.798884658899228 268677.677600484 514015.861193575
 1.12959223217675 268677.613264650 514015.894821488
 1.44092822637247 268677.583039845 514015.910619303
 1.73615138142753 268677.585408204 514015.909380442
 2.01393047603027 268677.617601021 514015.892552150
 2.27732466307572 268677.679178762 514015.860364179
 2.52520843823763 268677.766684554 514015.814623464
 2.76003016906276 268677.880742106 514015.755003982
 2.98132059974297 268678.017254515 514015.683647195
 3.19048157019051 268678.177736410 514015.599761392
 3.38813717652181 268678.357671852 514015.505707053
 3.57425956780996 268678.559120353 514015.400407649
 3.75090565408051 268678.777543228 514015.286235543
 3.91637577335327 268679.015037869 514015.162094411
 4.07431245949607 268679.267584348 514015.030085443
 4.22132883126877 268679.536697454 514014.889416856
 4.36254145218399 268679.819497044 514014.741594057
 4.49315293311552 268680.116263822 514014.586470336
 4.61932958122507 268680.425859742 514014.424640485
 4.73545929768207 268680.746759723 514014.256901706
 4.84801960758130 268681.080031013 514014.082696053
 4.95147168306719 268681.421975851 514013.903956418
 5.05160930839838 268681.776065850 514013.718868068
 5.14405746654010 268682.136387180 514013.530522261
 5.23279616398862 268682.508644095 514013.335937244
 5.31575618173857 268682.885074553 514013.139170349
 5.39401627848425 268683.273009970 514012.936389303
 5.46880752161613 268683.663651111 514012.732193580
 5.53747627138134 268684.064921191 514012.522441585
 5.60518059985992 268684.468193893 514012.311642384
 5.66517716878577 268684.880605512 514012.096065752
 5.72660568570396 268685.295181640 514011.879357239
 5.77892994530791 268685.716722139 514011.659007959
 5.83460873973943 268686.141440235 514011.436997189
 5.88036331271677 268686.570325129 514011.212807990
 5.93054802017343 268687.004097333 514010.986063555
 5.97092552178138 268687.438826030 514010.758818778
 6.01565097907271 268687.880547411 514010.527918205
 6.05188311796010 268688.319953681 514010.298227422
 6.09104876916668 268688.768427832 514010.063796063
 6.12432043437052 268689.211710293 514009.832078137
 6.15780505153781 268689.665605579 514009.594812046
 6.18914377728315 268690.112324514 514009.361296790
 6.21693557999064 268690.570172997 514009.121963278
 6.24709359083638 268691.020203676 514008.886715863
 6.26941548026966 268691.480449339 514008.646128289
 6.29876652298398 268691.933888483 514008.409098132
 6.31617255617776 268692.394983314 514008.168065681
 6.34464763077327 268692.852013870 514007.929157127
 6.35806745183825 268693.312550858 514007.688415282
 6.38515128567323 268693.773279751 514007.447572425
 6.39586465355906 268694.232142844 514007.207704582
 6.42066763330430 268694.696435292 514006.964997870
 6.43020104093794 268695.152939629 514006.726362021
 6.45160937378526 268695.620279922 514006.482061038
 6.46155969850094 268696.074272794 514006.244737005
 6.47845110670857 268696.543682720 514005.999353110
 6.49025545197421 268696.995577389 514005.763124852
 6.50175155121870 268697.465617999 514005.517410262
 6.51643607538340 268697.916339103 514005.281794419
 6.52214977995156 268698.385209053 514005.036690798
 6.54010140306958 268698.836040077 514004.801016425
 6.54033207429228 268699.301766675 514004.557555013
 6.56114284190922 268699.754107050 514004.321090555
 6.55697528906041 268700.214808454 514004.080255105
 6.57940615538549 268700.669869086 514003.842367560
 6.57268086271123 268701.124051588 514003.604938928
 6.59477615910311 268701.582538580 514003.365259190
 6.58791426163115 268702.029382847 514003.131665692
 6.60726971956798 268702.491232029 514002.890227326
 6.60295542876645 268702.930814861 514002.660428820
 6.61710728878792 268703.395036026 514002.417749497
 6.61785421308244 268703.828428397 514002.191186114
 6.62472711177067 268704.293094522 514001.948273240
 6.63238667177275 268704.722275719 514001.723910281
 6.63072754592504 268705.184655088 514001.482191938
 6.64603775823993 268705.612194709 514001.258686102
 6.63578060200904 268706.068985321 514001.019888504
 6.65809740378648 268706.497475142 514000.795884900
 6.64065502609368 268706.945069740 514000.561893846
 6.66806094767706 268707.376328459 514000.336441731
 6.64665211066953 268707.811014271 514000.109198180
 6.67675403153542 268708.245128663 513999.882252219
 6.65715075717968 268708.663127838 513999.663731147
 6.68923584400353 268709.097483259 513999.436658239
 6.68201610834015 268709.494916194 513999.228887782
 6.72221832369532 268709.923793349 513999.004677815
 6.74924263482732 268710.297534982 513998.809291528
 6.82266346677636 268710.714515859 513998.591299459
 6.93388901970230 268711.067999460 513998.406501919
 7.11221627257675 268711.478678823 513998.191801933
 7.42518801765575 268711.845605246 513997.999973044
 7.88627689993499 268712.312465247 513997.755897228
 8.67025156801525 268712.834368001 513997.483039307
 9.81681641180603 268713.611413526 513997.076786173
 11.6534900638520 268714.760025451 513996.476260938
 14.3238102134779 268716.657718084 513995.484084880
 18.3707516727118 268719.816609286 513993.832476604
 24.1438428518060 268725.118510794 513991.060329297
 32.4483966779869 268733.999335809 513986.416696086
 43.8812120052026 268748.621592964 513978.770443217
 59.3766923554406 268772.504605565 513966.280258209
 79.4408136712039 268810.789944215 513946.254873721
 104.268496461055 268871.509226191 513914.487686921
 132.592565366207 268966.247441037 513864.904577748
 160.667042060283 269112.330106180 513788.407781768
 179.807338017536 269334.347242948 513672.052057084
 172.613051113261 269667.607865842 513497.177667657
 106.787393381353 270161.015884011 513237.775395548
 -75.1621163139116 270881.949760504 512857.644619444
 -471.511630992978 271920.466585801 512307.561459464
 -1246.57088495323 273394.653782556 511521.074193572
 -2668.17378843703 275454.015852378 510409.606100270
 -5165.74439151660 278280.642764959 508854.791612699
 -9415.01171759486 282083.201314259 506695.594110169
 -16462.7310121035 287078.241125682 503701.361880042
 -27900.1869073883 293446.253932863 499510.636146321
 -46091.7661452393 301239.416261101 493487.956473392
 -74422.7015166717 310195.680229655 484396.430071302
 -117400.630141711 319379.742855351 469695.296863806
 -180025.004442111 326590.976410288 444217.662754413
 -0.000000000000000 -0.000000000000000 -0.000000000000000
 -0.000000000000000 -0.000000000000000 -0.000000000000000
 0.000000000000000 0.000000000000000 -0.000000000000000
 0.000000000000000 -0.000000000000000 0.000000000000000
 -0.000000000000000 -0.000000000000000 -0.000000000000000
 -0.000000000000000 -0.000000000000000 -0.000000000000000
 0.000000000000000 0.000000000000000 0.000000000000000
 0.000000000000000 0.000000000000000 -0.000000000000000
 0.000000000000000 0.000000000000000 -0.000000000000000
 0.000000000000000 0.000000000000000 -0.000000000000000
 -0.000000000000000 0.000000000000000 0.000000000000000
 -0.000000000000000 -0.000000000000000 0.000000000000000
 0.000000000000000 -0.000000000000000 -0.000000000000000
 -0.000000000000000 -0.000000000000000 -0.000000000000000
 -0.000000000000000 0.000000000000000 0.000000000000000
 -0.000000000000000 0.000000000000000 0.000000000000000
 -0.000000000000000 -0.000000000000000 -0.000000000000000
 0.000000000000000 0.000000000000000 -0.000000000000000
 0.000000000000000 -0.000000000000000 0.000000000000000
 -0.000000000000000 -0.000000000000000 -0.000000000000000
 -0.000000000000000 0.000000000000000 0.000000000000000
 0.000000000000000 -0.000000000000000 -0.000000000000000
 0.000000000000000 0.000000000000000 -0.000000000000000
 0.000000000000000 -0.000000000000000 0.000000000000000
 -0.000000000000000 0.000000000000000 0.000000000000000
 248285.776619764 272676.655221481 447662.389335475
 182389.083905758 269494.235980572 480111.527507168
 131023.009284440 261663.931637681 500764.373650882
 92466.0526191259 252117.550529663 514088.289915225
 64277.9769622103 242476.151529530 522947.088735632
 44060.3615701815 233562.777263904 529062.485548802
 29772.8233118025 225732.078674097 533440.350601185
 19801.9252264194 219076.291940086 536668.856993872
 12923.9877425801 213549.047620496 539100.894825087
 8234.83246616571 209037.772487513 540957.851600023
 5078.12926819813 205405.015968391 542386.386276574
 2983.70463435913 202511.243596075 543489.000554589
 1618.31402333823 200226.638729039 544340.586584348
 747.953681615477 198436.442006142 544997.632150117
 209.734013464133 197042.570769574 545503.603394296
 -108.750489061102 195963.188597443 545892.312537971
 -284.361298441060 195131.238691389 546190.185581374
 -369.126922361720 194492.546831725 546417.892251182
 -397.858019065798 194003.843037772 546591.575671975
 -393.521308593078 193630.891751979 546723.808609350
 -371.006054653653 193346.821299493 546824.349355338
 -339.746249686025 193130.685715251 546900.743103941
 -305.533718859913 192966.257650002 546958.801060647
 -271.762727272258 192841.034921927 547002.981157562
 -240.277203303487 192745.434206016 547036.689683242
 -211.942310497887 192672.144774425 547062.519012663
 -187.025232965428 192615.614800556 547082.434333772
 -165.445848150429 192571.646823937 547097.919450612
 -146.938013125682 192537.080844752 547110.090300848
 -131.151665384058 192509.547944422 547119.782816775
 -117.714244282590 192487.279535840 547127.620725044
 -106.266790613968 192468.960478909 547134.067628344
 -96.4822003621528 192453.616706795 547139.466779412
 -88.0738710008411 192440.529191166 547144.071490880
 -80.7969111037750 192429.169166220 547148.068008886
 -74.4466539698933 192419.148457154 547151.593038638
 -68.8543800833631 192410.183085304 547154.746579206
 -63.8829925371524 192402.064872230 547157.601931898
 -59.4220451936512 192394.641681754 547160.212662772
 -55.3832828080362 192387.801229566 547162.618305330
 -51.6967409257989 192381.460884647 547164.847952915
 -48.3068634425130 192375.558381562 547166.923528670
 -45.1701553780798 192370.046939426 547168.861504545
 -42.2518260263328 192364.889895549 547170.674790103
 -39.5249634708390 192360.058582031 547172.373480327
 -36.9674530848581 192355.529307807 547173.965917715
 -34.5624411911431 192351.282413088 547175.459025236
 -32.2953344292832 192347.300858600 547176.858802913
 -30.1552193871568 192343.569452248 547178.170599879
 -28.1319101511794 192340.074764492 547179.399144545
 -26.2179075737753 192336.803880984 547180.548983120
 -24.4056551802182 192333.745573344 547181.624068364
 -22.6895371525036 192330.888196747 547182.628498598
 -21.0636808963096 192328.222078781 547183.565678225
 -19.5234212630783 192325.736423133 547184.439406071
 -18.0641153828437 192323.422784073 547185.252654260
 -16.6814723863920 192321.271090150 547186.008965870
 -15.3718899945776 192319.273888615 547186.710963142
 -14.1310984065666 192317.421869879 547187.361920608
 -12.9564609140247 192315.708337711 547187.964193928
 -11.8435364462496 192314.124874927 547188.520743374
 -10.7905908745605 192312.665271694 547189.033753109
 -9.79295921590730 192311.322185159 547189.505805341
 -8.84969060954276 192310.089596960 547189.939016511
 -7.95598039592947 192308.961432438 547190.335522731
 -7.11144440613866 192307.931578803 547190.697473294
 -6.31135744707533 192306.995389977 547191.026501939
 -5.55557386410137 192306.146430825 547191.324870983
 -4.83978773152059 192305.381559334 547191.593685334
 -4.16366595234718 192304.693902970 547191.835360825
 -3.52374707141947 192304.081762860 547192.050495003
 -2.91902980452444 192303.537877273 547192.241640324
 -2.34734779345019 192303.061751347 547192.408971056
 -1.80656621168619 192302.645979855 547192.555089964
 -1.29620724277837 192302.290834194 547192.679901916
 -0.812643188678844 192301.989215172 547192.785902033
 -0.357324211574229 192301.741536182 547192.872945202
 0.0750247324140892 192301.541626083 547192.943200318
 0.481036673556865 192301.389282140 547192.996738745
 0.867493975656324 192301.279981526 547193.035150042
 1.22945190351332 192301.212108770 547193.059002018
 1.57470582599340 192301.183492471 547193.069057819
 1.89743695100370 192301.190401614 547193.066628702
 2.20559594763735 192301.233556124 547193.051461665
 2.49353530478183 192301.306654516 547193.025771298
 2.76819830284815 192301.413527792 547192.988211244
 3.02539971980647 192301.545248883 547192.941918789
 3.26974190425300 192301.708519306 547192.884538774
 3.49986742537976 192301.892250379 547192.819968130
 3.71673860076925 192302.105222237 547192.745121206
 3.92303147500937 192302.335221461 547192.664290177
 4.11506009227279 192302.591753407 547192.574134545
 4.30031048952221 192302.863049063 547192.478790271
 4.47000270431967 192303.157519379 547192.375301499
 4.63651864872356 192303.465787756 547192.266963377
 4.78633918365795 192303.793095948 547192.151933854
 4.93593692525869 192304.134519519 547192.031943390
 5.06835789633784 192304.490118199 547191.906971121
 5.20238529724709 192304.861231726 547191.776546013
 5.31989120710926 192305.241176727 547191.643017014
 5.43929421005389 192305.638714886 547191.503304715
 5.54433631123445 192306.039716211 547191.362375108
 5.64977213916986 192306.460480944 547191.214499439
 5.74467308423849 192306.879933787 547191.067084552
 5.83666504119971 192307.320701641 547190.912178272
 5.92348429145841 192307.756676503 547190.758956110
 6.00260306700554 192308.214164617 547190.598172871
 6.08298344062093 192308.665339391 547190.439607985
 6.15003038054678 192309.136242903 547190.274109186
 6.22505445861949 192309.601767895 547190.110500110
 6.28121541288378 192310.082871572 547189.941415661
 6.35130521943282 192310.562170203 547189.772964957
 6.39824136596491 192311.050523925 547189.601331611
 6.46313396958096 192311.543045870 547189.428232622
 6.50298004095950 192312.036179312 547189.254918514
 6.56180433857532 192312.541136768 547189.077448063
 6.59705561989785 192313.037275767 547188.903076669
 6.64852143802568 192313.553404677 547188.721678968
 6.68180812621723 192314.051643388 547188.546568601
 6.72449912279056 192314.577036842 547188.361913812
 6.75826805714836 192315.077418572 547188.186049201
 6.79100736231623 192315.609476769 547187.999051022
 6.82715336847128 192316.112944114 547187.822100837
 6.84938939928631 192316.648472771 547187.633881913
 6.88889733205853 192317.156664726 547187.455270073
 6.90104147003903 192317.692132031 547187.267071690
 6.94371111832274 192318.207030799 547187.086101493
 6.94735356749104 192318.738964311 547186.899144078
 6.99167905345352 192319.262424558 547186.715163655
 6.98961752865546 192319.787898555 547186.530475486
 7.03287814560894 192320.321122183 547186.343062397
 7.02891702489567 192320.838258745 547186.161303489
 7.06750710930310 192321.381302882 547185.970437658
 7.06602031226461 192321.889692534 547185.791751910
 7.09600418325272 192322.441110749 547185.597941730
 7.10129859420979 192322.942055663 547185.421871440
 7.11912880422683 192323.498766595 547185.226199953
 7.13468996684955 192323.995263856 547185.051691697
 7.13798237834014 192324.552714501 547184.855759200
 7.16572289909907 192325.049129618 547184.681278581
 7.15395122316217 192325.601774528 547184.487034206
 7.19360669653077 192326.103204578 547184.310789696
 7.16857120332172 192326.645264594 547184.120264723
 7.21739003308921 192327.156651736 547183.940519244
 7.18333429201097 192327.683057780 547183.755495379
 7.23617904471173 192328.208177979 547183.570921757
 7.19947281512035 192328.715557288 547183.392584471
 7.24938878597419 192329.256060615 547183.202602764
 7.21775855800779 192329.743591593 547183.031240823
 7.25697669139682 192330.298291017 547182.836268303
 7.23834178039940 192330.768241879 547182.671084433
 7.25958690447628 192331.332822594 547182.472637769
 7.26064372298762 192331.790602617 547182.311730629
 7.25854251970707 192332.357853198 547182.112344641
 7.28332576197080 192332.811451922 547181.952905935
 7.25567688639666 192333.372017973 547181.755868698
 7.30439923228390 192333.830794514 547181.594608731
 7.25309410673813 192334.374348516 547181.403550374
 7.32160850975222 192334.847251659 547181.237323682
 7.25308703087383 192335.363873220 547181.055731235
 7.33333911318217 192335.857290164 547180.882292756
 7.25868120237966 192336.338763573 547180.713054047
 7.34062899443167 192336.854283615 547180.531845202
 7.27588854396682 192337.295001353 547180.376931249
 7.35185361428383 192337.827540099 547180.189739272
 7.32041912132087 192338.225041353 547180.050014941
 7.39427364466998 192338.762509207 547179.861089342
 7.43558828422795 192339.119303490 547179.735672173
 7.54252030778450 192339.647823245 547179.549890473
 7.73648027559556 192339.981448219 547179.432614792
 7.98558225154171 192340.508769814 547179.247251208
 8.51056852389311 192340.891693798 547179.112640463
 9.17312512337906 192341.524540223 547178.890175231
 10.4278885331376 192342.212329145 547178.648384227
 12.1068685604959 192343.379824981 547178.237954441
 14.9359134024984 192345.172270380 547177.607803167
 18.8522637940872 192348.216433947 547176.537581128
 24.8920949634330 192353.386716975 547174.719809763
 33.2575486385733 192362.017167079 547171.685346882
 45.2730030612922 192376.538535946 547166.579179762
 61.4269603423509 192400.201353055 547158.257495976
 82.9677375193146 192438.759679790 547144.694655133
 110.008502965968 192499.988132262 547123.151097821
 142.105693067209 192596.594542791 547089.144085762
 176.082460285783 192746.076162457 547036.487922829
 204.391863977482 192975.087843113 546955.732848564
 211.269846102510 193320.399669830 546833.775873939
 166.352836019592 193834.922669488 546651.621309630
 15.4566976561006 194590.438278738 546383.163257780
 -336.184606354145 195684.987222904 545992.007959349
 -1047.11539084333 197246.938451703 545428.775204232
 -2379.15544145523 199441.399307808 544625.988969980
 -4753.02500098395 202471.395684234 543491.253547854
 -8836.28154357406 206574.716229153 541893.722738442
 -15667.7574221024 212007.006678463 539636.498484490
 -26841.1728361726 219001.153622929 536393.555286233
 -44754.1519398364 227678.449943515 531563.344593534
 -72927.7178091043 237857.206349649 523932.722172127
 -116321.253457082 248629.203626927 510933.347020933
 -181371.863460052 257364.550031205 487101.360634790
 -0.000000000000000 0.000000000000000 -0.000000000000000
 -0.000000000000000 -0.000000000000000 0.000000000000000
 -0.000000000000000 -0.000000000000000 -0.000000000000000
 0.000000000000000 0.000000000000000 0.000000000000000
 0.000000000000000 -0.000000000000000 -0.000000000000000
 -0.000000000000000 0.000000000000000 0.000000000000000
 0.000000000000000 0.000000000000000 -0.000000000000000
 -0.000000000000000 0.000000000000000 0.000000000000000
 0.000000000000000 0.000000000000000 0.000000000000000
 0.000000000000000 -0.000000000000000 -0.000000000000000
 -0.000000000000000 0.000000000000000 0.000000000000000
 -0.000000000000000 0.000000000000000 0.000000000000000
 -0.000000000000000 0.000000000000000 -0.000000000000000
 -0.000000000000000 -0.000000000000000 0.000000000000000
 -0.000000000000000 0.000000000000000 0.000000000000000
 0.000000000000000 0.000000000000000 -0.000000000000000
 -0.000000000000000 0.000000000000000 -0.000000000000000
 -0.000000000000000 0.000000000000000 0.000000000000000
 0.000000000000000 -0.000000000000000 0.000000000000000
 0.000000000000000 0.000000000000000 -0.000000000000000
 -0.000000000000000 -0.000000000000000 0.000000000000000
 -0.000000000000000 0.000000000000000 -0.000000000000000
 -0.000000000000000 -0.000000000000000 -0.000000000000000
 -0.000000000000000 0.000000000000000 -0.000000000000000
 0.000000000000000 -0.000000000000000 0.000000000000000
 244706.376232089 219803.188400218 477708.433880393
 176421.349837408 216232.821738901 508447.513637721
 124690.334210951 207389.488360505 527107.124474645
 86788.2163455948 196836.968980979 538630.683442683
 59611.8959572064 186413.478871444 545982.084646954
 40417.3473024475 176965.708249527 550862.574641604
 27018.0846132877 168803.249381015 554234.143753559
 17760.5454600363 161960.559220765 556644.716387266
 11429.7260372691 156341.422739766 558414.470531002
 7148.17896654409 151796.296673158 559738.142218106
 4289.49479847418 148162.571197398 560740.093742680
 2410.35886701786 145284.618867552 561503.846550175
 1199.36996996781 143022.877675442 562088.087378759
 439.339036336150 141257.027555950 562535.562562287
 -20.1109170249307 139886.057096140 562878.220066868
 -282.276780955225 138826.785504861 563140.341252699
 -417.484648560025 138011.720451231 563340.563713159
 -473.117788025012 137386.740983968 563493.264876664
 -480.703510485766 136908.867864936 563609.555298769
 -460.894265536992 136544.248787295 563698.018179583
 -426.948818657298 136266.409325560 563765.273322352
 -387.150888043050 136054.774761746 563816.413718792
 -346.478644487882 135893.446430064 563855.345961983
 -307.748555543376 135770.203157275 563885.056749564
 -272.392689805225 135675.697182188 563907.821364759
 -240.981037161440 135602.811958388 563925.366796988
 -213.568762296330 135546.154492148 563938.998820594
 -189.922393753699 135501.655867069 563949.700936854
 -169.665217213977 135466.259733151 563958.210940868
 -152.366573819107 135437.680063407 563965.080127723
 -137.595984166827 135414.214212545 563970.718793577
 -124.951969398291 135394.599257894 563975.431095007
 -114.077262941614 135377.901852416 563979.441714338
 -104.662911092887 135363.434951060 563982.915985870
 -96.4485150997978 135350.693847569 563985.975333311
 -89.2177580431031 135339.309217002 563988.708593404
 -82.7940012351196 135329.010285747 563991.180888704
 -77.0341470865666 135319.599364858 563993.439761026
 -71.8235575660773 135310.930598646 563995.520285316
 -67.0709591772571 135302.896989765 563997.448192510
 -62.7038204589478 135295.417924700 563999.242869006
 -58.6651829168811 135288.433251211 564000.918781902
 -54.9094951808629 135281.895750612 564002.487288015
 -51.4015046880537 135275.768938941 564003.957163301
 -48.1122095983210 135270.022491819 564005.335701958
 -45.0196343882355 135264.631659534 564006.628857537
 -42.1046023319964 135259.574761286 564007.841844950
 -39.3530466480695 135254.832804471 564008.979232044
 -36.7515230296308 135250.388800363 564010.045104408
 -34.2905529087224 135246.226607845 564011.043342680
 -31.9600829614884 135242.332126719 564011.977336900
 -29.7531867330100 135238.690709102 564012.850607179
 -27.6619703068510 135235.290342261 564013.666040868
 -25.6807918074061 135232.117288255 564014.426938028
 -23.8033538289605 135229.161227811 564015.135778308
 -22.0244833678067 135226.409152887 564015.795685314
 -20.3392872458072 135223.852151568 564016.408799960
 -18.7425252503966 135221.477998820 564016.978056984
 -17.2306822673334 135219.278873015 564017.505334866
 -15.7981192965976 135217.243538749 564017.993330179
 -14.4426940169430 135215.364868567 564018.443754165
 -13.1582252560049 135213.632926817 564018.858991074
 -11.9438540866407 135212.040813677 564019.240696934
 -10.7929137877145 135210.580254966 564019.590857116
 -9.70558369735353 135209.244089601 564019.911189774
 -8.67498302709955 135208.026051007 564020.203198551
 -7.70189183073153 135206.918281651 564020.468768164
 -6.77969905762573 135205.916769607 564020.708861408
 -5.90915924191021 135205.012671725 564020.925598971
 -5.08459188569414 135204.204287006 564021.119389394
 -4.30596055400094 135203.481737131 564021.292601277