# OOMMF OVF 2.0
#
# Segment count: 1
#
# Begin: Segment
# Begin: Header
#
# Title: Oxs_TimeDriver::Magnetization
# Desc: Oxs vector field output
# Desc:  MIF source file: C:/Users/Victor H. González/Documents/GitHub/Intro-to-magnetism-in-python/domain_wall_conversion_thin_film/drive-40/domain_wall_conversion_thin_film.mif
# Desc:  Iteration: 3362, State id: 23640
# Desc:  Stage: 279, Stage iteration: 11
# Desc:  Stage simulation time: 2e-12 s
# Desc:  Total simulation time: 5.6e-10 s
# meshunit: m
# meshtype: rectangular
# xbase: 1.0000000000000001e-09
# ybase: 1.0000000000000001e-09
# zbase: 1.0000000000000001e-09
# xnodes: 225
# ynodes: 100
# znodes: 1
# xstepsize: 2.0000000000000001e-09
# ystepsize: 2.0000000000000001e-09
# zstepsize: 2.0000000000000001e-09
# xmin: 0
# ymin: 0
# zmin: 0
# xmax: 4.5000000000000003e-07
# ymax: 2.0000000000000002e-07
# zmax: 2.0000000000000001e-09
# valuedim: 3
# valuelabels: Magnetization_x Magnetization_y Magnetization_z
# valueunits: A/m A/m A/m
#
# End: Header
#
# Begin: Data Text
 0.000000000000000 -0.000000000000000 -0.000000000000000
 -0.000000000000000 0.000000000000000 0.000000000000000
 0.000000000000000 0.000000000000000 -0.000000000000000
 0.000000000000000 0.000000000000000 0.000000000000000
 0.000000000000000 0.000000000000000 0.000000000000000
 0.000000000000000 -0.000000000000000 0.000000000000000
 -0.000000000000000 -0.000000000000000 0.000000000000000
 -0.000000000000000 -0.000000000000000 -0.000000000000000
 -0.000000000000000 0.000000000000000 -0.000000000000000
 -0.000000000000000 -0.000000000000000 -0.000000000000000
 0.000000000000000 -0.000000000000000 -0.000000000000000
 0.000000000000000 0.000000000000000 0.000000000000000
 0.000000000000000 0.000000000000000 -0.000000000000000
 0.000000000000000 0.000000000000000 0.000000000000000
 0.000000000000000 0.000000000000000 -0.000000000000000
 -0.000000000000000 0.000000000000000 -0.000000000000000
 0.000000000000000 -0.000000000000000 -0.000000000000000
 -0.000000000000000 -0.000000000000000 0.000000000000000
 0.000000000000000 -0.000000000000000 -0.000000000000000
 -0.000000000000000 -0.000000000000000 -0.000000000000000
 0.000000000000000 -0.000000000000000 0.000000000000000
 0.000000000000000 -0.000000000000000 0.000000000000000
 0.000000000000000 0.000000000000000 -0.000000000000000
 -0.000000000000000 -0.000000000000000 0.000000000000000
 0.000000000000000 -0.000000000000000 0.000000000000000
 250279.664178876 337888.174339453 399489.263109862
 187033.257821313 336756.782297651 433605.154541870
 135947.847098866 331288.690561961 456252.108351211
 96798.7965173256 323658.920723171 471460.386489797
 67784.0881776022 315429.382209560 481985.085068850
 46768.0686148053 307519.273894816 489535.130446473
 31803.9681629129 300391.671662349 495129.630707951
 21296.7190779833 294226.649114239 499376.740254810
 14010.1158539962 289042.268144154 502651.254728206
 9017.43848983607 284771.342593021 505196.959849176
 5639.13810335375 281307.838532020 507182.511628600
 3384.81119963279 278533.831513570 508731.213663475
 1904.95310263683 276334.368822804 509936.944887287
 953.084347800986 274604.952345484 510872.989868872
 357.019865938948 273254.624021999 511597.285946095
 -2.43870155071719 272206.527897083 512155.841677381
 -207.051836401426 271397.113190172 512585.177391600
 -312.349796217947 270774.690348990 512914.193120071
 -355.631058974561 270297.760589119 513165.659555526
 -361.623150326014 269933.357089987 513357.430996014
 -346.458491661377 269655.520156101 513503.437589132
 -320.448020575326 269443.960683002 513614.494893323
 -290.001719431456 269282.924704254 513698.960833800
 -258.949998214037 269160.250684331 513763.264934781
 -229.444379739317 269066.599897425 513812.331668788
 -202.567383198346 268994.836213460 513849.916859923
 -178.739565723946 268939.531957123 513878.873084749
 -157.989256689260 268896.576855528 513901.358234024
 -140.126768829051 268862.871975161 513918.997934263
 -124.855944840989 268836.090145938 513933.012216610
 -111.842142477896 268814.491481883 513944.312801175
 -100.752832682088 268796.779653284 513953.578737312
 -91.2795290548390 268781.993300839 513961.313471428
 -83.1482023250666 268769.421200118 513967.889380387
 -76.1230139842375 268758.539829152 513973.580521595
 -70.0049273994411 268748.963972901 513978.588525633
 -64.6296558148458 268740.411688854 513983.060954652
 -59.8623203109269 268732.675962768 513987.106147997
 -55.5947681485414 268725.605462937 513990.803300798
 -51.7393625594309 268719.088684962 513994.210764442
 -48.2274841538777 268713.043382689 513997.371579003
 -45.0035399504925 268707.408267611 514000.317817786
 -42.0249400456123 268702.136788802 514003.073842011
 -39.2567157542106 268697.193633290 514005.658132772
 -36.6725698141991 268692.550257508 514008.085628270
 -34.2503746156667 268688.184672517 514010.367837361
 -31.9735725934399 268684.077242440 514012.515036423
 -29.8279230002578 268680.212860508 514014.535132547
 -27.8023935576880 268676.576300354 514016.436093777
 -25.8876470887287 268673.156111232 514018.223913374
 -24.0755593000492 268669.939394751 514019.905340239
 -22.3599773822253 268666.916721367 514021.485309189
 -20.7341219190108 268664.076683785 514022.969788068
 -19.1940471825472 268661.410980002 514024.363120877
 -17.7334525949428 268658.909481371 514025.670605862
 -16.3500021557915 268656.564442864 514026.896294770
 -15.0374869585607 268654.367094448 514028.044774753
 -13.7947261833077 268652.309821205 514029.120028658
 -12.6155643360947 268650.385394643 514030.125837151
 -11.4995224637062 268648.585997287 514031.066288235
 -10.4407240554131 268646.906105375 514031.944270977
 -9.43887388721369 268645.337478083 514032.764094075
 -8.48879099727511 268643.876349375 514033.527727445
 -7.58977724887951 268642.513992064 514034.239733521
 -6.73787296161351 268641.248272091 514034.901228908
 -5.93137022125303 268640.070117521 514035.516955854
 -5.16806483247141 268638.978678241 514036.087359636
 -4.44470056945500 268637.964910542 514036.617167462
 -3.76125297901392 268637.028668570 514037.106456309
 -3.11256031694339 268636.161531463 514037.559627654
 -2.50096732524250 268635.363280709 514037.976796254
 -1.91934721460795 268634.626877849 514038.361640952
 -1.37225678173839 268633.951141189 514038.714779724
 -0.850936615304271 268633.331232811 514039.038741260
 -0.361577609716531 268632.764134056 514039.335103420
 0.105442594582826 268632.247935504 514039.604864360
 0.543309565344458 268631.777088965 514039.850923768
 0.961329112589650 268631.353078221 514040.072506453
 1.35343616155532 268630.967489548 514040.274009535
 1.72714593955819 268630.625232221 514040.452867635
 2.07871713654036 268630.315201730 514040.614883977
 2.41231010405281 268630.045202553 514040.755980161
 2.72803943943942 268629.802221372 514040.882956856
 3.02533248443405 268629.595810452 514040.990822289
 3.30934944069235 268629.412440961 514041.086646458
 3.57390514517959 268629.261700417 514041.165419187
 3.82974111395229 268629.131435795 514041.233491423
 4.06497449078234 268629.029167980 514041.286933009
 4.29554596717300 268628.946270785 514041.330251758
 4.50479992691364 268628.886003370 514041.361744651
 4.71242444981586 268628.845329520 514041.382998219
 4.89899944569603 268628.821346126 514041.395529768
 5.08545697364147 268628.818167172 514041.397189222
 5.25258537515205 268628.825546246 514041.393331369
 5.41923107781570 268628.855388132 514041.377734803
 5.56999511175970 268628.890028695 514041.359630650
 5.71792000506414 268628.948547904 514041.329047921
 5.85512262215059 268629.007159992 514041.298416727
 5.98534742640718 268629.090076833 514041.255084325
 6.11135653856082 268629.170117899 514041.213254755
 6.22503357347830 268629.273221065 514041.159373422
 6.34162958471147 268629.372767508 514041.107350685
 6.44021976417520 268629.491994127 514041.045043585
 6.54848183323711 268629.609548937 514040.983609968
 6.63387113102293 268629.741131256 514040.914846033
 6.73413710918275 268629.875382863 514040.844686917
 6.80866089952824 268630.016038444 514040.771181458
 6.90058813528966 268630.165599879 514040.693021635
 6.96694316614191 268630.312729565 514040.616132887
 7.04968242428936 268630.475897870 514040.530862291
 7.11072406720349 268630.627747587 514040.451506858
 7.18319828962050 268630.802328278 514040.360272292
 7.24164281209951 268630.958069776 514040.278882961
 7.30289953753446 268631.141307701 514040.183124228
 7.36097378553671 268631.301001161 514040.099669510
 7.41055904893883 268631.489646497 514040.001084922
 7.46965849365715 268631.654064956 514039.915160807
 7.50794562891544 268631.844582264 514039.815597937
 7.56837147031679 268632.014902228 514039.726589578
 7.59677456881170 268632.203804121 514039.627870878
 7.65761762003050 268632.381194953 514039.535167180
 7.67862911929065 268632.565454398 514039.438874516
 7.73785069393383 268632.750625620 514039.342104706
 7.75486622063185 268632.928097292 514039.249359168
 7.80959535294716 268633.120881905 514039.148610549
 7.82652446440546 268633.290648930 514039.059891243
 7.87355089256130 268633.489706856 514038.955864168
 7.89425489347914 268633.652269562 514038.870909581
 7.93065528195063 268633.854985432 514038.764970864
 7.95829530473757 268634.012226407 514038.682797130
 7.98209423801655 268634.214850074 514038.576906608
 8.01850486118692 268634.369744848 514038.495958709
 8.02924973876021 268634.567784119 514038.392463998
 8.07446624676063 268634.723874368 514038.310891070
 8.07359225071817 268634.912702501 514038.212210082
 8.12564687113758 268635.073399685 514038.128229337
 8.11652851005426 268635.248991910 514038.036465374
 8.17159221256866 268635.416821899 514037.948756849
 8.15922289416321 268635.576494144 514037.865312553
 8.21211116174476 268635.752417526 514037.773374322
 8.20241902153901 268635.895417558 514037.698642743
 8.24741373778201 268636.078360893 514037.603035868
 8.24630087561455 268636.206168816 514037.536243438
 8.27817753348301 268636.392880372 514037.438667354
 8.29044286260934 268636.509118775 514037.377920854
 8.30554046246371 268636.694421612 514037.281081098
 8.33389053048911 268636.804350983 514037.223631361
 8.33102607349533 268636.981807640 514037.130892191
 8.37537546716011 268637.091469765 514037.073581777
 8.35639460010676 268637.254394030 514036.988437416
 8.41360720180386 268637.369535949 514036.928262959
 8.38339414765641 268637.512191521 514036.853711161
 8.44753973388282 268637.637133884 514036.788414762
 8.41340186415718 268637.755868922 514036.726363910
 8.47653083942451 268637.892478046 514036.654970346
 8.44702786385342 268637.986500840 514036.605834081
 8.50041947840375 268638.133407765 514036.529058913
 8.48389225981364 268638.204953211 514036.491669162
 8.51970520466612 268638.357154321 514036.412127432
 8.52292402505702 268638.410924063 514036.384027001
 8.53618050980001 268638.559878205 514036.306182450
 8.56367866631959 268638.601805538 514036.284270506
 8.55465107387845 268638.736080203 514036.214097849
 8.60960772904656 268638.771643608 514036.195511259
 8.58727210894310 268638.878157613 514036.139846682
 8.67571250293360 268638.910873999 514036.122747384
 8.66460294544120 268638.977398344 514036.087981473
 8.80697911884599 268639.009715256 514036.071090000
 8.86342579484243 268639.032150536 514036.059364189
 9.12236212903568 268639.076211213 514036.036333221
 9.37272613431048 268639.083073068 514036.032742661
 9.91375507228823 268639.203395684 514035.969850992
 10.6372158027236 268639.333253474 514035.901971816
 11.8499202110208 268639.779453205 514035.668757444
 13.6383974194021 268640.502502103 514035.290840436
 16.3507498106716 268642.073299554 514034.469842218
 20.3724190881280 268644.771942895 514033.059338322
 26.1603000389140 268649.732259250 514030.466677484
 34.4747747687517 268658.116177451 514026.084380426
 45.9040701307033 268672.358201542 514018.639575686
 61.4621129820023 268695.703511628 514006.434917696
 81.5319735708737 268733.543169002 513986.649756947
 106.505604916162 268793.677129288 513955.200179813
 134.901567128555 268887.879579611 513905.915530019
 163.264616181896 269033.324169422 513829.780988817
 182.645180805579 269254.705755260 513713.801711990
 175.990419405887 269587.288827094 513539.348765243
 110.736501807335 270079.994245239 513280.415022742
 -70.2514791981233 270800.277396850 512900.774835171
 -465.477781288318 271838.141544761 512351.254640726
 -1238.94084979911 273311.866688637 511565.331656421
 -2658.65003389366 275370.858418925 510454.524824319
 -5153.83311197276 278197.475830312 508900.385582382
 -9400.37674223629 282000.250209436 506742.036739523
 -16445.0478515940 286995.986541360 503748.810529922
 -27879.3922900119 293364.970067165 499559.539817859
 -46068.2002751614 301159.480723138 493538.942834279
 -74397.4355515416 310117.132940512 484450.601651098
 -117376.121921269 319302.441250001 469753.974985325
 -180006.022608264 326514.172765362 444281.810125178
 -0.000000000000000 -0.000000000000000 -0.000000000000000
 -0.000000000000000 -0.000000000000000 -0.000000000000000
 0.000000000000000 0.000000000000000 -0.000000000000000
 0.000000000000000 -0.000000000000000 0.000000000000000
 -0.000000000000000 -0.000000000000000 -0.000000000000000
 -0.000000000000000 -0.000000000000000 -0.000000000000000
 0.000000000000000 0.000000000000000 0.000000000000000
 0.000000000000000 0.000000000000000 -0.000000000000000
 0.000000000000000 0.000000000000000 -0.000000000000000
 0.000000000000000 0.000000000000000 -0.000000000000000
 -0.000000000000000 0.000000000000000 0.000000000000000
 -0.000000000000000 -0.000000000000000 0.000000000000000
 0.000000000000000 -0.000000000000000 -0.000000000000000
 -0.000000000000000 -0.000000000000000 -0.000000000000000
 -0.000000000000000 0.000000000000000 0.000000000000000
 -0.000000000000000 0.000000000000000 0.000000000000000
 -0.000000000000000 -0.000000000000000 -0.000000000000000
 0.000000000000000 0.000000000000000 -0.000000000000000
 0.000000000000000 -0.000000000000000 0.000000000000000
 -0.000000000000000 -0.000000000000000 -0.000000000000000
 -0.000000000000000 0.000000000000000 0.000000000000000
 0.000000000000000 -0.000000000000000 -0.000000000000000
 0.000000000000000 0.000000000000000 -0.000000000000000
 0.000000000000000 -0.000000000000000 0.000000000000000
 -0.000000000000000 0.000000000000000 0.000000000000000
 248277.299261568 272666.279998859 447673.410448919
 182379.541708551 269483.848235950 480120.982988791
 131013.034782535 261653.286438294 500772.545586427
 92455.9905285502 252106.409265645 514095.563317335
 64268.0047140320 242464.290124481 522953.814007039
 44050.5752812978 233550.004614237 529068.938950376
 29763.2840072567 225718.248842765 533446.734983408
 19792.6787094723 219061.307302931 536675.314796790
 12915.0710465977 213532.855234718 539107.522369305
 8226.27449718821 209020.356450384 540964.711415866
 5069.95016672802 205386.388522499 542393.516752359
 2975.91526074984 202491.436223907 543496.423340890
 1610.91644063586 200205.694727301 544348.311972196
 740.942245233899 198414.410257176 545005.663096162
 203.097001317214 197019.501592987 545511.938222858
 -115.029096111078 195939.130531807 545900.946962676
 -290.300214438074 195106.237070146 546199.113860608
 -374.745956429229 194466.642615874 546427.108107914
 -403.177159449984 193977.072978144 546601.072636168
 -398.559557960396 193603.288265598 546733.580387218
 -375.781319859055 193318.413259394 546834.389814018
 -344.274493318877 193101.498731219 546911.046389475
 -309.829511912434 192936.314869118 546969.361491481
 -275.838506566177 192810.357450182 547013.793220108
 -244.144269346930 192714.041574031 547047.747983463
 -215.610048548640 192640.055489273 547073.818175753
 -190.502331990187 192582.846295511 547093.969096334
 -168.739470886853 192538.216252254 547109.684441238
 -150.055007617390 192503.004426048 547122.080317035
 -134.097800967749 192474.842131675 547131.992451700
 -120.495166229627 192451.959740490 547140.044844973
 -108.887546398875 192433.042686888 547146.700826907
 -98.9476607398409 192417.115643408 547152.304040504
 -90.3888368187355 192403.460353338 547157.107487346
 -82.9657140414693 192391.546592207 547161.297897200
 -76.4741435753954 192380.986999468 547165.011667245
 -70.7444505657176 192371.496077155 547168.349315145
 -65.6406890249597 192362.866310392 547171.383897359
 -61.0508610474588 192354.944213777 547174.169446354
 -56.8884843834825 192347.617775678 547176.745393773
 -53.0814539750441 192340.803477563 547179.141141149
 -49.5764979849345 192334.438665030 547181.378745274
 -46.3275453327365 192328.476438996 547183.474717953
 -43.3023564968333 192322.878824998 547185.442428224
 -40.4713209042279 192317.618071378 547187.291648320
 -37.8147514477420 192312.668060413 547189.031572756
 -35.3134363496539 192308.011236980 547190.668384466
 -32.9545672197530 192303.626967237 547192.209346261
 -30.7257854910342 192299.503324653 547193.658659361
 -28.6174551584477 192295.622270706 547195.022671591
 -26.6221499269451 192291.975049529 547196.304467430
 -24.7310540277608 192288.545218147 547197.509831929
 -22.9406702186398 192285.325643367 547198.641277507
 -21.2416239988814 192282.301509492 547199.704015825
 -19.6337321093652 192279.466086019 547200.700416395
 -18.1064515910533 192276.806761834 547201.634914981
 -16.6623082030807 192274.316096586 547202.510129438
 -15.2896516382996 192271.984487054 547203.329437638
 -13.9928764321680 192269.802772302 547204.096061149
 -12.7598949915023 192267.765128201 547204.812049193
 -11.5957753726584 192265.859883742 547205.481504620
 -10.4891883503612 192264.085494867 547206.104972157
 -9.44433129223859 192262.427392012 547206.687572562
 -8.45220796330881 192260.888323410 547207.228341927
 -7.51438264053830 192259.451017333 547207.733350002
 -6.62591455814735 192258.121864176 547208.200352806
 -5.78399860321919 192256.881805554 547208.636047486
 -4.98930715189940 192255.739471512 547209.037402864
 -4.23328512989893 192254.675686272 547209.411157051
 -3.52324554614365 192253.699198156 547209.754237085
 -2.84422490527346 192252.793032188 547210.072607616
 -2.21030926288837 192251.963401085 547210.364086374
 -1.60052615450230 192251.198232542 547210.632915325
 -1.03467912096542 192250.498363904 547210.878800632
 -0.487470341378646 192249.859292157 547211.103324767
 0.0179646705447395 192249.273937305 547211.308975408
 0.508242828282000 192248.747465028 547211.493938011
 0.960531997365500 192248.263196378 547211.664072554
 1.39864979996872 192247.836928352 547211.813829356
 1.80460458335587 192247.442112415 547211.952535740
 2.19467070875200 192247.104499701 547212.071144875
 2.56051601586554 192246.789237446 547212.181901442
 2.90624230132752 192246.529396487 547212.273187070
 3.23743697097302 192246.285401730 547212.358905348
 3.54242840806048 192246.093033171 547212.426486216
 3.84347225475770 192245.913427201 547212.489583132
 4.11150164394114 192245.778848098 547212.536861304
 4.38577438657711 192245.657862820 547212.579363502
 4.62099314397706 192245.572148934 547212.609474394
 4.87067496420891 192245.504749963 547212.633150687
 5.07771164883346 192245.459964144 547212.648882856
 5.30383034252549 192245.441426754 547212.655393223
 5.48773856222310 192245.430888314 547212.659093749
 5.69037296860820 192245.456378952 547212.650136369
 5.85641080069068 192245.474911813 547212.643623696
 6.03505507916675 192245.539141433 547212.621056750
 6.18830723903440 192245.583230192 547212.605565870
 6.34236852930654 192245.680248640 547212.571479779
 6.48725620824815 192245.748035454 547212.547663341
 6.61662437404831 192245.871225328 547212.504382927
 6.75637997152950 192245.962298765 547212.472385429
 6.86197916324555 192246.104601761 547212.422390393
 6.99818698958656 192246.219561000 547212.382001293
 7.08240185476847 192246.373931739 547212.327766780
 7.21471436441885 192246.513752294 547212.278643341
 7.28158508580295 192246.673789069 547212.222418339
 7.40771211531801 192246.839062823 547212.164352620
 7.46281576285053 192246.999719650 547212.107909812
 7.57884962940650 192247.189883597 547212.041099628
 7.62883042342139 192247.348132622 547211.985502671
 7.72991501414756 192247.560827534 547211.910776905
 7.78168825555944 192247.716124862 547211.856216785
 7.86297267364533 192247.946828353 547211.775164293
 7.92269695780475 192248.101246893 547211.720912660
 7.98044539219356 192248.343299780 547211.635872999
 8.05242236016308 192248.501233119 547211.580386214
 8.08509566394582 192248.746323073 547211.494279715
 8.17080142270144 192248.913732392 547211.435463435
 8.17989645243792 192249.152820549 547211.351465657
 8.27736056623639 192249.336083331 547211.287079318
 8.26780169603500 192249.560669368 547211.208176586
 8.37151940946649 192249.765179635 547211.136325178
 8.35144807774922 192249.968715058 547211.064818058
 8.45293768105943 192250.197461548 547210.984451649
 8.43283783596530 192250.376657809 547210.921495375
 8.52184560978011 192250.629050265 547210.832821460
 8.51306424224751 192250.784805077 547210.778100504
 8.57929104681296 192251.056014998 547210.682815598
 8.59214404133408 192251.193709225 547210.634439384
 8.62724377033471 192251.474733507 547210.535706653
 8.66901230096101 192251.603736280 547210.490383432
 8.66851872470222 192251.882283582 547210.392521265
 8.74171271010973 192252.014636899 547210.346020282
 8.70651071158801 192252.276791191 547210.253917816
 8.80778020630436 192252.425206381 547210.201773220
 8.74476625177791 192252.657662121 547210.120105047
 8.86476753682619 192252.833117940 547210.058459767
 8.78644861126621 192253.025635128 547209.990823393
 8.91082462166679 192253.234985983 547209.917269434
 8.83377818295702 192253.382612979 547209.865404336
 8.94521570715164 192253.626667033 547209.779657999
 8.88755303655404 192253.731255804 547209.742913293
 8.96866663685361 192254.003751275 547209.647174799
 8.94686850957374 192254.074366016 547209.622365707
 8.98347081606895 192254.362160248 547209.521252741
 9.00914457007878 192254.414158091 547209.502983606
 8.99332773851978 192254.698759071 547209.402993204
 9.07051553592694 192254.751571925 547209.384436838
 9.00291779702716 192255.011902938 547209.292974040
 9.12653527644736 192255.085814858 547209.267003975
 9.01722697067738 192255.301834811 547209.191109849
 9.17303683420849 192255.414262109 547209.151607281
 9.04065547054268 192255.570811556 547209.096607677
 9.20692784090753 192255.732707049 547209.039724773
 9.07602279140638 192255.822785303 547209.008078972
 9.22676350129469 192256.035798356 547208.933236628
 9.12373036969138 192256.062483485 547208.923862819
 9.23311186809623 192256.317436463 547208.834285887
 9.18150211618753 192256.293880996 547208.842562731
 9.22893268281579 192256.570976810 547208.745207042
 9.24521246707169 192256.518297555 547208.763715118
 9.22039609402623 192256.789217423 547208.668530380
 9.31142060815351 192256.732519426 547208.688449161
 9.21902623886294 192256.964205769 547208.607049808
 9.38289406807998 192256.927402489 547208.619977533
 9.24758660580821 192257.087139424 547208.563857644
 9.48083120075394 192257.088096916 547208.563517247
 9.35625903502202 192257.150564630 547208.541571885
 9.67358480018767 192257.200994270 547208.523848332
 9.66454905595375 192257.162961145 547208.537211115
 10.1437801360701 192257.286328389 547208.493858371
 10.4602127065079 192257.209491107 547208.520848566
 11.3355556113545 192257.513676903 547208.413957864
 12.4096873208462 192257.653609865 547208.364770157
 14.2484773511418 192258.551784722 547208.049157377
 16.9559727462616 192259.717897051 547207.639371602
 20.9533908002054 192262.519627885 547206.654845583
 26.9566746341100 192267.001550631 547205.079826629
 35.3167401174483 192275.371272970 547202.138477701
 47.4008617677643 192289.161187052 547197.291882131
 63.4808922103916 192312.492856590 547189.090773437
 85.2144850344383 192350.292512798 547175.801464879
 112.165198753308 192411.067582835 547154.428375210
 144.610144693155 192506.897231206 547120.712097723
 178.580995926766 192655.763426109 547068.300057252
 207.459663865395 192883.988720728 546987.864450091
 214.581293456457 193228.519225306 546866.248101731
 170.585372244125 193742.280832890 546684.460651938
 20.4218343953143 194496.924438658 546416.458360151
 -329.744054076023 195590.847638994 546025.742606261
 -1039.17052814143 197152.042124659 545463.099036672
 -2368.95990138457 199346.244191850 544660.869675424
 -4740.34423594002 202375.943419365 543526.914385706
 -8820.50590329539 206479.682016582 541930.198078997
 -15648.6411962240 211912.475532674 539674.182023122
 -26818.5646446294 218907.855829534 536432.768617389
 -44728.3447986151 227586.398481430 531604.934512301
 -72899.8183605644 237766.677362547 523977.693818134
 -116293.556243114 248539.657479639 510983.216393878
 -181348.915046436 257275.087811468 487157.161707680
 -0.000000000000000 0.000000000000000 -0.000000000000000
 -0.000000000000000 -0.000000000000000 0.000000000000000
 -0.000000000000000 -0.000000000000000 -0.000000000000000
 0.000000000000000 0.000000000000000 0.000000000000000
 0.000000000000000 -0.000000000000000 -0.000000000000000
 -0.000000000000000 0.000000000000000 0.000000000000000
 0.000000000000000 0.000000000000000 -0.000000000000000
 -0.000000000000000 0.000000000000000 0.000000000000000
 0.000000000000000 0.000000000000000 0.000000000000000
 0.000000000000000 -0.000000000000000 -0.000000000000000
 -0.000000000000000 0.000000000000000 0.000000000000000
 -0.000000000000000 0.000000000000000 0.000000000000000
 -0.000000000000000 0.000000000000000 -0.000000000000000
 -0.000000000000000 -0.000000000000000 0.000000000000000
 -0.000000000000000 0.000000000000000 0.000000000000000
 0.000000000000000 0.000000000000000 -0.000000000000000
 -0.000000000000000 0.000000000000000 -0.000000000000000
 -0.000000000000000 0.000000000000000 0.000000000000000
 0.000000000000000 -0.000000000000000 0.000000000000000
 0.000000000000000 0.000000000000000 -0.000000000000000
 -0.000000000000000 -0.000000000000000 0.000000000000000
 -0.000000000000000 0.000000000000000 -0.000000000000000
 -0.000000000000000 -0.000000000000000 -0.000000000000000
 -0.000000000000000 0.000000000000000 -0.000000000000000
 0.000000000000000 -0.000000000000000 0.000000000000000
 244696.071682610 219791.500381695 477719.089908560
 176410.014119173 216221.062167681 508456.447686086
 124678.545025557 207377.311627430 527114.703866710
 86776.2892728780 196824.051113403 538637.325594262
 59600.0074187906 186399.536625536 545988.142601528
 40405.6111011515 176950.517680495 550868.315375051
 27006.5875879329 168786.653336257 554239.758482195
 17749.3600024290 161942.464656103 556650.337609357
 11418.9119143535 156321.791384211 558420.187662592
 7137.78230891820 151775.132985443 559744.013876845
 4279.54693085389 148139.909726486 560746.157030340
 2400.87671542931 145260.513335929 561510.123734541
 1190.35741473343 142997.391633582 562094.590825439
 430.789338605596 141230.227988213 562542.298074503
 -28.2124953438629 139858.009378248 562885.189374182
 -289.950374115532 138797.551067732 563147.543496712
 -424.753341727396 137981.354795267 563347.996635704
 -480.005965250437 137355.293816860 563500.925336203
 -487.235056000483 136876.382692051 563617.439814578
 -467.092129479506 136510.764109255 563706.122999609
 -432.833706408557 136231.958829409 563773.594671199
 -392.741880672897 136019.388646327 563824.947715241
 -351.792037526679 135857.151787309 563864.088722275
 -312.799246896688 135733.024885624 563894.004323534
 -277.192911550481 135637.658543151 563916.969729605
 -245.542211325756 135563.934769168 563934.711911692
 -217.900055932181 135506.460048701 563948.536485941
 -194.032730951865 135461.164229425 563959.427030800
 -173.561793393132 135424.991259619 563968.121101394
 -156.056666585893 135395.653688715 563975.170205677
 -141.085745640258 135371.449775722 563980.984325208
 -128.247611536775 135351.114779840 563985.867979335
 -117.184580408896 135333.716688799 563990.045475069
 -107.587363710749 135318.566231528 563993.682640153
 -99.1959930863572 135305.160266874 563996.900492645
 -91.7930882233732 135293.127005342 563999.788438919
 -85.2034250696013 135282.197193375 564002.411220830
 -79.2818779894195 135272.170769934 564004.816938272
 -73.9162773130146 135262.902981439 564007.040393484
 -69.0122784445654 135254.285007386 564009.107749552
 -64.5008006834783 135246.236462792 564011.038333735
 -60.3209067968026 135238.696444693 564012.846791036
 -56.4312005743080 135231.616605357 564014.544746695
 -52.7919329383163 135224.961288066 564016.140777595
 -49.3784370336592 135218.697259912 564017.642873964
 -46.1643767925740 135212.802554749 564019.056321807
 -43.1343224558566 135207.250559913 564020.387517560
 -40.2708627421554 135202.027151282 564021.639861843
 -37.5627613926573 135197.108442488 564022.819093190
 -34.9992219111966 135192.485008183 564023.927482130
 -32.5698497470448 135188.134349415 564024.970431567
 -30.2694115430177 135184.049693472 564025.949573453
 -28.0862355143816 135180.210058294 564026.869944827
 -26.0201355506147 135176.609580081 564027.732957686
 -24.0570582321837 135173.229778775 564028.543047630
 -22.2013361277307 135170.063952399 564029.301825894
 -20.4363764186974 135167.097548450 564030.012785385
 -18.7700998231283 135164.321277264 564030.678156197
 -17.1841502194076 135161.726016971 564031.300128653
 -15.6884762988020 135159.298334926 564031.881924667
 -14.2646239430151 135157.035750813 564032.424142065
 -12.9223285352521 135154.919637397 564032.931246769
 -11.6454462339610 135152.954698610 564033.402114289
 -10.4407161972411 135151.116908730 564033.842503546
 -9.29716430092573 135149.417689351 564034.249679744
 -8.21554004572115 135147.828555978 564034.630469716
 -7.19290224133873 135146.365932639 564034.980939536
 -6.22130374024654 135144.999121973 564035.308445860
 -5.30813028129818 135143.746524068 564035.608580931
 -4.43491988633679 135142.578732490 564035.888391745
 -3.62048296792663 135141.511965429 564036.143993086