# OOMMF OVF 2.0
#
# Segment count: 1
#
# Begin: Segment
# Begin: Header
#
# Title: Oxs_TimeDriver::Magnetization
# Desc: Oxs vector field output
# Desc:  MIF source file: C:/Users/Victor H. González/Documents/GitHub/Intro-to-magnetism-in-python/domain_wall_conversion_thin_film/drive-40/domain_wall_conversion_thin_film.mif
# Desc:  Iteration: 3974, State id: 27935
# Desc:  Stage: 330, Stage iteration: 11
# Desc:  Stage simulation time: 2e-12 s
# Desc:  Total simulation time: 6.62e-10 s
# meshunit: m
# meshtype: rectangular
# xbase: 1.0000000000000001e-09
# ybase: 1.0000000000000001e-09
# zbase: 1.0000000000000001e-09
# xnodes: 225
# ynodes: 100
# znodes: 1
# xstepsize: 2.0000000000000001e-09
# ystepsize: 2.0000000000000001e-09
# zstepsize: 2.0000000000000001e-09
# xmin: 0
# ymin: 0
# zmin: 0
# xmax: 4.5000000000000003e-07
# ymax: 2.0000000000000002e-07
# zmax: 2.0000000000000001e-09
# valuedim: 3
# valuelabels: Magnetization_x Magnetization_y Magnetization_z
# valueunits: A/m A/m A/m
#
# End: Header
#
# Begin: Data Text
 0.000000000000000 -0.000000000000000 -0.000000000000000
 -0.000000000000000 0.000000000000000 0.000000000000000
 0.000000000000000 0.000000000000000 -0.000000000000000
 0.000000000000000 0.000000000000000 0.000000000000000
 0.000000000000000 0.000000000000000 0.000000000000000
 0.000000000000000 -0.000000000000000 0.000000000000000
 -0.000000000000000 -0.000000000000000 0.000000000000000
 -0.000000000000000 -0.000000000000000 -0.000000000000000
 -0.000000000000000 0.000000000000000 -0.000000000000000
 -0.000000000000000 -0.000000000000000 -0.000000000000000
 0.000000000000000 -0.000000000000000 -0.000000000000000
 0.000000000000000 0.000000000000000 0.000000000000000
 0.000000000000000 0.000000000000000 -0.000000000000000
 0.000000000000000 0.000000000000000 0.000000000000000
 0.000000000000000 0.000000000000000 -0.000000000000000
 -0.000000000000000 0.000000000000000 -0.000000000000000
 0.000000000000000 -0.000000000000000 -0.000000000000000
 -0.000000000000000 -0.000000000000000 0.000000000000000
 0.000000000000000 -0.000000000000000 -0.000000000000000
 -0.000000000000000 -0.000000000000000 -0.000000000000000
 0.000000000000000 -0.000000000000000 0.000000000000000
 0.000000000000000 -0.000000000000000 0.000000000000000
 0.000000000000000 0.000000000000000 -0.000000000000000
 -0.000000000000000 -0.000000000000000 0.000000000000000
 0.000000000000000 -0.000000000000000 0.000000000000000
 250285.447241018 337894.875825062 399479.971701374
 187039.926605944 336763.559861499 433597.014063351
 135954.861679430 331295.694441908 456244.932497865
 96805.8659427224 323666.281316994 471453.881792809
 67791.0687382899 315437.225292020 481978.970391232
 46774.8900878802 307527.712868818 489529.177347929
 31810.5924800233 300400.798056673 495123.668120384
 21303.1210993143 294236.527715786 499370.646703614
 14016.2762972239 289052.936998238 502644.947862258
 9023.34230762983 284782.816243520 505190.386751380
 5644.77480905229 281320.112916594 507175.640765554
 3390.17532609102 278546.889152107 508724.028580272
 1910.04429242794 276348.183662781 509929.439351253
 957.906887038394 274619.493676635 510865.164311665
 361.581875362278 273269.859561993 511589.144835497
 1.87372939754072 272222.425814474 512147.391753753
 -202.976245077784 271413.643511241 512576.426415220
 -308.497405608268 270791.825561184 512905.149163656
 -351.988156945147 270315.475989739 513156.330512232
 -358.176433029572 269951.630627282 513347.824414708
 -343.195578453569 269674.332284448 513493.560547483
 -317.357524280666 269463.293939741 513604.354054117
 -287.073537626303 269302.763413395 513688.562464352
 -256.175084166121 269180.580559980 513752.615004263
 -226.814933210466 269087.407738769 513801.435918017
 -200.076451347211 269016.109673579 513838.780850090
 -176.381217132022 268961.259246864 513867.502294130
 -155.758124628089 268918.746729041 513889.758019255
 -138.018231318368 268885.473403154 513907.173664398
 -122.865705795774 268859.112524661 513920.969134817
 -109.966384640401 268837.924227201 513932.056214247
 -98.9879248286288 268820.612614254 513941.113781616
 -89.6220783786030 268806.216247255 513948.645367139
 -81.5949742659111 268794.024398825 513955.023119479
 -74.6707904562546 268783.513436547 513960.521177433
 -68.6507208366594 268774.298704082 513965.340896842
 -63.3702821526523 268766.098173712 513969.629897221
 -58.6949710351280 268758.705404836 513973.496227205
 -54.5162341221348 268751.969064837 513977.019089135
 -50.7469902010278 268745.778160917 513980.256571618
 -47.3180385098937 268740.050597289 513983.251639555
 -44.1745109566543 268734.725442659 513986.036181793
 -41.2731079864327 268729.756518754 513988.634366463
 -38.5796939030522 268725.108624427 513991.064617272
 -36.0672251879702 268720.753874131 513993.341529318
 -33.7144035432564 268716.670074644 513995.476718748
 -31.5040215147529 268712.838570988 513997.479949677
 -29.4225092200229 268709.243705789 513999.359417285
 -27.4584466400798 268705.871548516 514001.122412574
 -25.6028284540665 268702.709780764 514002.775382556
 -23.8475831304478 268699.747043799 514004.324271587
 -22.1863718959958 268696.972825952 514005.774580339
 -20.6130683435546 268694.377358503 514007.131420399
 -19.1228822543996 268691.951222981 514008.399719598
 -17.7108685331469 268689.685810863 514009.583981841
 -16.3731265597504 268687.572474273 514010.688731083
 -15.1055092424794 268685.603572106 514011.717964597
 -13.9046074209592 268683.771089600 514012.675874568
 -12.7669044733235 268682.068242400 514013.566009685
 -11.6892319408691 268680.487603614 514014.392254192
 -10.6686474430690 268679.023144877 514015.157761028
 -9.70206185475319 268677.668034787 514015.866102652
 -8.78709429516963 268676.416880838 514016.520099170
 -7.92063918268496 268675.263489989 514017.122988960
 -7.10086223715476 268674.202960248 514017.677335374
 -6.32460635419485 268673.229802840 514018.186008344
 -5.59053582264096 268672.339443996 514018.651399379
 -4.89547064447372 268671.527173610 514019.075971150
 -4.23847348101309 268670.788584627 514019.462027802
 -3.61643619224768 268670.119809046 514019.811591649
 -3.02866046565530 268669.516469631 514020.126951077
 -2.47226653417027 268668.975569411 514020.409672973
 -1.94658290064339 268668.492675028 514020.662074920
 -1.44916114373708 268668.065630497 514020.885284116
 -0.979111925954912 268667.689935725 514021.081652925
 -0.534639586587607 268667.364166161 514021.251926145
 -0.114393702264995 268667.083836825 514021.398448162
 0.282568449643973 268666.848054430 514021.521686026
 0.658256029585242 268666.652527943 514021.623882689
 1.01262711095839 268666.496608163 514021.705377575
 1.34845301445301 268666.376461189 514021.768174652
 1.66469164636433 268666.291329808 514021.812669769
 1.96484099621505 268666.238152563 514021.840463117
 2.24699840503845 268666.215688864 514021.852203168
 2.51518338975730 268666.221966038 514021.848921005
 2.76694733447648 268666.254920136 514021.831695437
 3.00644975105259 268666.313919379 514021.800856671
 3.23117720012358 268666.395840676 514021.758037089
 3.44489657992524 268666.501510508 514021.702804694
 3.64563418925549 268666.626683359 514021.637378519
 3.83614187244996 268666.773563144 514021.560606610
 4.01563491654024 268666.936945283 514021.475209270
 4.18523276043936 268667.120090144 514021.379482364
 4.34592505828890 268667.317249613 514021.276430275
 4.49670559211202 268667.532172781 514021.164093433
 4.64073485049148 268667.759219954 514021.045419536
 4.77463797806286 268668.001853844 514020.918598714
 4.90383246989456 268668.255366819 514020.786091479
 5.02269267665714 268668.522042258 514020.646704392
 5.13857588648013 268668.798986174 514020.501949992
 5.24415372581706 268669.086426763 514020.351709062
 5.34796318425830 268669.384070204 514020.196135070
 5.44195588510066 268669.689396283 514020.036545357
 5.53468068559197 268670.005230488 514019.871462979
 5.61870913527136 268670.325964973 514019.703819129
 5.70114758929213 268670.657633445 514019.530459990
 5.77672052342210 268670.991700590 514019.355846890
 5.84955536582307 268671.336947429 514019.175390047
 5.91801589493132 268671.682655674 514018.994691778
 5.98189997015283 268672.039300080 514018.808277044
 6.04436388441100 268672.395302041 514018.622197805
 6.10000516517179 268672.761243715 514018.430922927
 6.15730393285768 268673.126469880 514018.240021682
 6.20553599310502 268673.499725699 514018.044923169
 6.25817912298100 268673.873293434 514017.849661214
 6.30000268842571 268674.252060255 514017.651681508
 6.34817339989014 268674.633165495 514017.452479084
 6.38475690403009 268675.015898262 514017.252425737
 6.42835137350273 268675.403702869 514017.049720898
 6.46098364967316 268675.789192395 514016.848225912
 6.49969749990364 268676.182724426 514016.642526665
 6.52969335125800 268676.570156451 514016.440015617
 6.56315020789802 268676.968242105 514016.231935487
 6.59171864069719 268677.357219375 514016.028615997
 6.61962590911396 268677.758463338 514015.818884299
 6.64771990827273 268678.148975971 514015.614761511
 6.67002840831579 268678.551800840 514015.404202748
 6.69820261618288 268678.944137452 514015.199125783
 6.71524142327262 268679.346883589 514014.988607447
 6.74354810302688 268679.741485982 514014.782345362
 6.75610545249874 268680.142562077 514014.572699235
 6.78405783255749 268680.539838611 514014.365038575
 6.79338385997178 268680.937902337 514014.156966294
 6.82000806857598 268681.338027113 514013.947816056
 6.82772512102554 268681.732166318 514013.741794409
 6.85170754633866 268682.134899758 514013.531279832
 6.85962792237621 268682.524778996 514013.327484152
 6.87954620253728 268682.929347137 514013.116009809
 6.88941436850842 268683.315283336 514012.914274429
 6.90402156198005 268683.720346690 514012.702540507
 6.91721651891252 268684.103283179 514012.502372331
 6.92573402660713 268684.507012586 514012.291334981
 6.94298428458597 268684.888374736 514012.091988944
 6.94535268336438 268685.288634911 514011.882764335
 6.96652558172476 268685.670073737 514011.683377425
 6.96356339958181 268686.064698739 514011.477097754
 6.98758565832248 268686.447756992 514011.276863556
 6.98101219376860 268686.834886036 514011.074501503
 7.00595618065144 268687.220644995 514010.872854830
 6.99824564862017 268687.599069344 514010.675042236
 7.02158060206064 268687.987842123 514010.471819446
 7.01563599980156 268688.357292653 514010.278696989
 7.03460910479926 268688.748415339 514010.074245159
 7.03328256605046 268689.109702032 514009.885389438
 7.04537780103489 268689.501443637 514009.680613442
 7.05092174493737 268689.856357140 514009.495088431
 7.05435421456179 268690.245938395 514009.291441119
 7.06795570985149 268690.596852641 514009.108005895
 7.06219807981590 268690.980542498 514008.907437641
 7.08382248201462 268691.329711143 514008.724914156
 7.07025006486416 268691.702953207 514008.529806770
 7.09914450023395 268692.051552597 514008.347580132
 7.08212989458622 268692.409068821 514008.160692646
 7.11868771198781 268692.756140954 514007.979263652
 7.10814744026434 268693.092103300 514007.803642553
 7.15881015264462 268693.433969615 514007.624934073
 7.17683700231211 268693.743162773 514007.463305418
 7.26601212869511 268694.075530060 514007.289561394
 7.36366477407854 268694.359462033 514007.141136254
 7.56127236494543 268694.689700101 514006.968503146
 7.85789617380176 268694.980514648 514006.816476676
 8.33910868389218 268695.371997274 514006.611822947
 9.10624444843578 268695.810089407 514006.382798379
 10.2706520686469 268696.516312269 514006.013599222
 12.0926132565101 268697.572622494 514005.461372298
 14.7757216621306 268699.401799271 514004.505091533
 18.8130159297989 268702.459314235 514002.906610996
 24.5924533079893 268707.690971345 514000.171408590
 32.8958998753621 268716.460774073 513995.586194002
 44.3298800736484 268731.005467575 513987.981119450
 59.8375104423375 268754.766981307 513975.555492959
 79.9032521898823 268792.960816818 513955.579628044
 104.764055379988 268853.546936337 513923.884757503
 133.102895553697 268948.173304950 513874.364372800
 161.245527194320 269094.110613195 513797.950203359
 180.437299833647 269315.992523311 513681.675372564
 173.371174156664 269649.099510615 513506.896814007
 107.671628172585 270142.355803326 513247.597176888
 -74.0508826225728 270863.143893083 512867.577252474
 -470.148472092118 271901.519003585 512317.619181654
 -1244.83411514220 273375.606015920 511531.258500842
 -2666.00837817782 275434.889604809 510419.938861830
 -5163.02425994870 278261.522386843 508865.275234465
 -9411.67210951038 282064.135342402 506706.269925335
 -16458.6869849094 287059.344159807 503712.263651854
 -27895.4336466946 293427.582882981 499521.869776604
 -46086.3746715573 301221.062959801 493499.662916806
 -74416.9233451965 310177.646996279 484408.865343820
 -117395.025580861 319362.000650913 469708.761371464
 -180020.668816797 326573.348739910 444232.379157074
 -0.000000000000000 -0.000000000000000 -0.000000000000000
 -0.000000000000000 -0.000000000000000 -0.000000000000000
 0.000000000000000 0.000000000000000 -0.000000000000000
 0.000000000000000 -0.000000000000000 0.000000000000000
 -0.000000000000000 -0.000000000000000 -0.000000000000000
 -0.000000000000000 -0.000000000000000 -0.000000000000000
 0.000000000000000 0.000000000000000 0.000000000000000
 0.000000000000000 0.000000000000000 -0.000000000000000
 0.000000000000000 0.000000000000000 -0.000000000000000
 0.000000000000000 0.000000000000000 -0.000000000000000
 -0.000000000000000 0.000000000000000 0.000000000000000
 -0.000000000000000 -0.000000000000000 0.000000000000000
 0.000000000000000 -0.000000000000000 -0.000000000000000
 -0.000000000000000 -0.000000000000000 -0.000000000000000
 -0.000000000000000 0.000000000000000 0.000000000000000
 -0.000000000000000 0.000000000000000 0.000000000000000
 -0.000000000000000 -0.000000000000000 -0.000000000000000
 0.000000000000000 0.000000000000000 -0.000000000000000
 0.000000000000000 -0.000000000000000 0.000000000000000
 -0.000000000000000 -0.000000000000000 -0.000000000000000
 -0.000000000000000 0.000000000000000 0.000000000000000
 0.000000000000000 -0.000000000000000 -0.000000000000000
 0.000000000000000 0.000000000000000 -0.000000000000000
 0.000000000000000 -0.000000000000000 0.000000000000000
 -0.000000000000000 0.000000000000000 0.000000000000000
 248283.729627943 272674.152394997 447665.049135745
 182386.780064231 269491.730149598 480113.809256491
 131020.601360313 261661.363765713 500766.345446106
 92463.6238890508 252114.863128188 514090.044687854
 64275.5703051002 242473.290638833 522948.711049879
 44058.0002279234 233559.696898868 529064.042059583
 29770.5220362131 225728.743764277 533441.890233878
 19799.6950887048 219072.679084975 536670.414083845
 12921.8376752229 213545.144205297 539102.492572084
 8232.76943731700 209033.574840344 540959.505043453
 5076.15810898669 205400.527199484 542388.104630832
 2981.82793794196 202506.471460497 543490.788991650
 1616.53224193058 200221.593811435 544342.447541177
 746.265412020526 198431.136243650 544999.566290643
 208.136374577321 197037.016415367 545505.610274890
 -110.261411530549 195957.397486057 545894.391080282
 -285.790070574368 195125.221845811 546192.334369184
 -370.478377071621 194486.314238904 546420.109732007
 -399.137020415866 193997.403625943 546593.860261924
 -394.732497819960 193624.253428953 546726.158758053
 -372.153779001356 193339.991074671 546826.763566681
 -340.834420134938 193123.669837362 546903.219939733
 -306.565860368830 192959.061736271 546961.339137632
 -272.741904040148 192833.664117249 547005.579125999
 -241.206133572297 192737.893252733 547039.346230323
 -212.823325697792 192664.438171023 547065.232829209
 -187.860406316343 192607.746789476 547085.204136566
 -166.236975674541 192563.621554430 547100.743939459
 -147.686714892415 192528.902280238 547112.968202547
 -131.859396324355 192501.220039487 547122.712831782
 -118.382334527341 192478.806078371 547130.601590029
 -106.896507066510 192460.345283689 547137.098053513
 -97.0746986371900 192444.863417833 547142.545522275
 -88.6303330866280 192431.641480189 547147.197289636
 -81.3183886618568 192420.150530425 547151.239656064
 -74.9343027594816 192410.002394795 547154.809321170
 -69.3091857062295 192400.912933645 547158.006336869
 -64.3061088405360 192392.673918173 547160.904019412
 -59.8144107398342 192385.133092064 547163.555975163
 -55.7460491921586 192378.178045632 547166.001780283
 -52.0308113911214 192371.726098875 547168.270544386
 -48.6133700653858 192365.714765323 547170.384267612
 -45.4499783578940 192360.097312322 547172.359404506
 -42.5060496359436 192354.836747280 547174.208980251
 -39.7544615511801 192349.904562217 547175.943033398
 -37.1732277824342 192345.276627620 547177.570060392
 -34.7453812288617 192340.933551231 547179.096890040
 -32.4563244630674 192336.857766823 547180.529707492
 -30.2951858084975 192333.034429242 547181.873739839
 -28.2515893448309 192329.449537843 547183.133916167
 -26.3182825364981 192326.090549523 547184.314652096
 -24.4872941597329 192322.945690492 547185.420092042
 -22.7534880596691 192320.003630960 547186.454223481
 -21.1103414228920 192317.254270401 547187.420601248
 -19.5538950356903 192314.686972376 547188.322967845
 -18.0786502659904 192312.293084002 547189.164368169
 -16.6811955541606 192310.062434207 547189.948380166
 -15.3569468344427 192307.987684019 547190.677586056
 -14.1025820799479 192306.059073627 547191.355418456
 -12.9144880437448 192304.270417152 547191.984053626
 -11.7890853357182 192302.612441066 547192.566752655
 -10.7238441853866 192301.079870769 547193.105370979
 -9.71468393918272 192299.664103895 547193.602933326
 -8.76024036405630 192298.360441671 547194.061092318
 -7.85581228658243 192297.161227217 547194.482540019
 -7.00118161986444 192296.061927148 547194.868870582
 -6.19106496241081 192295.056158538 547195.222328060
 -5.42621632178210 192294.139113167 547195.544602916
 -4.70099337867941 192293.306009586 547195.837376167
 -4.01676436430787 192292.551361661 547196.102576296
 -3.36794360032915 192291.872243412 547196.341232085
 -2.75597494388868 192291.262205725 547196.555610261
 -2.17591231777969 192290.720276966 547196.746052670
 -1.62859803614216 192290.238960828 547196.915193914
 -1.11041202116504 192289.819106968 547197.062735699
 -0.620862883810880 192289.452357559 547197.191615275
 -0.158343107674600 192289.140963674 547197.301041798
 0.279639175317309 192288.876199005 547197.394081922
 0.692126507840597 192288.660994257 547197.469705916
 1.08406861532804 192288.487044198 547197.530832403
 1.45167283985012 192288.356975307 547197.576538519
 1.80244880359240 192288.263918209 547197.609238265
 2.12991703633571 192288.209052360 547197.628517248
 2.44377429816463 192288.188049076 547197.635896603
 2.73551572595031 192288.199503408 547197.631870109
 3.01611593537757 192288.242631585 547197.616713158
 3.27624084869438 192288.312522873 547197.592151475
 3.52672167261290 192288.412617751 547197.556976005
 3.75905036416428 192288.534022579 547197.514312078
 3.98211148216402 192288.684533458 547197.461420039
 4.19015218834844 192288.851446806 547197.402764040
 4.38816401991214 192289.046320037 547197.334282684
 4.57506439370783 192289.253599493 547197.261441629
 4.75019249883417 192289.487198615 547197.179351584
 4.91867492821716 192289.730482930 547197.093857971
 5.07300736088027 192289.997553972 547197.000005444
 5.22530373552171 192290.273148668 547196.903157453
 5.36096407372239 192290.568833488 547196.799249552
 5.49876913880732 192290.873562620 547196.692163145
 5.61799571360231 192291.193455965 547196.579747826
 5.74245875657166 192291.524487147 547196.463418244
 5.84763181912716 192291.864724776 547196.343853350
 5.95940325310715 192292.219383058 547196.219220512
 6.05300707589988 192292.576740280 547196.093639150
 6.15234919969450 192292.952333785 547195.961648938
 6.23686532322550 192293.324307812 547195.830930529
 6.32382562384055 192293.717992428 547195.692582332
 6.40156570357353 192294.102839841 547195.557339459
 6.47619785386101 192294.511550094 547195.413710468
 6.54909806301667 192294.908253679 547195.274300518
 6.61170242565584 192295.328721124 547195.126539263
 6.68111367956726 192295.736869121 547194.983106867
 6.73245837341624 192296.165738017 547194.832392568
 6.79897500756006 192296.585312858 547194.684943840
 6.84045326400530 192297.019346615 547194.532413854
 6.90382461181279 192297.450438091 547194.380917190
 6.93750656102311 192297.886791288 547194.227571414
 6.99666924544916 192298.329267887 547194.072072995
 7.02521761425765 192298.765780906 547193.918670326
 7.07847065399482 192299.218969383 547193.759406721
 7.10490970230912 192299.654429614 547193.606373258
 7.15023086200499 192300.116862583 547193.443860132
 7.17758402232110 192300.551171299 547193.291230528
 7.21305734103333 192301.020462266 547193.126306556
 7.24389761796851 192301.454652280 547192.973717813
 7.26819369030735 192301.927544922 547192.807527366
 7.30417687880379 192302.363612080 547192.654278048
 7.31700526772110 192302.836225910 547192.488184854
 7.35847380304102 192303.276766539 547192.333362507
 7.36091670848360 192303.745027291 547192.168798399
 7.40666599555853 192304.192710761 547192.011464900
 7.40130808462879 192304.652916256 547191.849730950
 7.44859331057426 192305.109860928 547191.689141836
 7.43938577936635 192305.559298509 547191.531191359
 7.48421420643692 192306.026452471 547191.367013450
 7.47605008703886 192306.463958866 547191.213255244
 7.51375476437864 192306.940604994 547191.045740600
 7.51178305121153 192307.366949658 547190.895904220
 7.53781690804335 192307.850450417 547190.725979819
 7.54657883139376 192308.268433779 547190.579081046
 7.55741496837895 192308.754302538 547190.408323731
 7.57993768016856 192309.168494884 547190.262756339
 7.57392423943727 192309.650831268 547190.093239810
 7.61094321092865 192310.066936452 547189.946999185
 7.58894748860149 192310.539202342 547189.781021277
 7.63843520160543 192310.963106934 547189.632038600
 7.60412412454157 192311.419156303 547189.471759340
 7.66126841560924 192311.855803200 547189.318297456
 7.62091032913554 192312.291019424 547189.165339357
 7.67861096505313 192312.743301847 547189.006381485
 7.64034720170594 192313.155644823 547188.861461521
 7.69019993118405 192313.623530493 547188.697019074
 7.66282631782285 192314.014262001 547188.559693746
 7.69646854606371 192314.494321094 547188.390972238
 7.68788478048791 192314.868179273 547188.259576250
 7.69851440083790 192315.353617161 547188.088963785
 7.71412613036581 192315.718271523 547187.960801588
 7.69798974316963 192316.199481489 547187.791674611
 7.73945426282243 192316.564222119 547187.663481095
 7.69714255116838 192317.029784176 547187.499853337
 7.76192595388955 192317.403549311 547187.368487069
 7.69946416758192 192317.841501543 547187.214562718
 7.78181527090340 192318.230483536 547187.077847353
 7.71197651715102 192318.629621591 547186.937564301
 7.80641310430456 192319.034889568 547186.795124119
 7.75182471411486 192319.386092457 547186.671687944
 7.86166642032831 192319.802430292 547186.525356179
 7.86385842385984 192320.101513378 547186.420237238
 8.02069008411796 192320.521517789 547186.272615454
 8.16432682136366 192320.780330421 547186.181647931
 8.47079381282681 192321.216521447 547186.028334017
 8.94110839908609 192321.503675273 547185.927399580
 9.66004646965933 192322.064569189 547185.730247536
 10.8638663678819 192322.634087361 547185.530053268
 12.5892757450717 192323.746699118 547185.138958583
 15.3794718281722 192325.399254743 547184.558046895
 19.3247558665903 192328.399303270 547183.503450164
 25.3456581091591 192333.411103760 547181.741591210
 33.7185657670644 192341.998168331 547178.722725648
 45.7418614523107 192356.346887706 547173.677838855
 61.8835961187615 192379.954337142 547165.376590716
 83.4654532700708 192418.330507655 547151.879388315
 110.484557426928 192479.477918501 547130.366890181
 142.664710852725 192575.896656203 547096.429958961
 176.632656239683 192725.259942522 547043.821810458
 205.082778861602 192954.082917516 546963.143023838
 212.003325230687 193299.235686773 546841.257164728
 167.313963892517 193813.579616774 546659.188491486
 16.5684562468819 194568.910721356 546390.829632225
 -334.713972657371 195663.317829382 545999.774745882
 -1045.31875334659 197225.105336177 545436.673807178
 -2376.82132854055 199419.515514579 544634.012482055
 -4750.13898957761 202449.447956231 543499.454647193
 -8832.66732326157 206552.878900959 541902.105740218
 -15663.3920453577 211985.284277244 539645.158784483
 -26835.9939993241 218979.731096868 536402.560391737
 -44748.2498564150 227657.310000893 531572.895601295
 -72921.3301744505 237836.430027133 523943.042856317
 -116314.917383707 248608.649429910 510944.790973210
 -181366.616076430 257344.021301014 487114.160411714
 -0.000000000000000 0.000000000000000 -0.000000000000000
 -0.000000000000000 -0.000000000000000 0.000000000000000
 -0.000000000000000 -0.000000000000000 -0.000000000000000
 0.000000000000000 0.000000000000000 0.000000000000000
 0.000000000000000 -0.000000000000000 -0.000000000000000
 -0.000000000000000 0.000000000000000 0.000000000000000
 0.000000000000000 0.000000000000000 -0.000000000000000
 -0.000000000000000 0.000000000000000 0.000000000000000
 0.000000000000000 0.000000000000000 0.000000000000000
 0.000000000000000 -0.000000000000000 -0.000000000000000
 -0.000000000000000 0.000000000000000 0.000000000000000
 -0.000000000000000 0.000000000000000 0.000000000000000
 -0.000000000000000 0.000000000000000 -0.000000000000000
 -0.000000000000000 -0.000000000000000 0.000000000000000
 -0.000000000000000 0.000000000000000 0.000000000000000
 0.000000000000000 0.000000000000000 -0.000000000000000
 -0.000000000000000 0.000000000000000 -0.000000000000000
 -0.000000000000000 0.000000000000000 0.000000000000000
 0.000000000000000 -0.000000000000000 0.000000000000000
 0.000000000000000 0.000000000000000 -0.000000000000000
 -0.000000000000000 -0.000000000000000 0.000000000000000
 -0.000000000000000 0.000000000000000 -0.000000000000000
 -0.000000000000000 -0.000000000000000 -0.000000000000000
 -0.000000000000000 0.000000000000000 -0.000000000000000
 0.000000000000000 -0.000000000000000 0.000000000000000
 244703.888223033 219800.368515909 477711.005827582
 176418.613112240 216229.984611309 508449.669783104
 124687.488349946 207386.550667470 527108.953491810
 86785.3376235818 196833.852654963 538632.286093737
 59609.0270393605 186410.115700506 545983.546143971
 40414.5157098405 176962.044358062 550863.959409720
 27015.3113480092 168799.247030716 554235.497920003
 17757.8480050558 161956.196155517 556646.071899430
 11427.1188241587 156336.689930351 558415.848930706
 7145.67310232503 151791.195394424 559739.557612866
 4287.09781996970 148157.109989651 560741.555042781
 2408.07480567300 145278.810872606 561505.359090340
 1197.19971818161 143016.738414169 562089.654099956
 437.280900721652 141250.573336864 562537.184830853
 -22.0605497334564 139879.303857241 562879.898260495
 -284.122837180021 138819.748177762 563142.075137418
 -419.232763111993 138004.412567972 563342.352708954
 -474.773902021075 137379.174613576 563495.108206127
 -482.273457240533 136901.053624272 563611.452091666
 -462.383620744243 136536.196014597 563699.967517519
 -428.362655393595 136258.126249081 563767.274268847
 -388.493823385388 136046.268699978 563818.465328480
 -347.754696309826 135884.723999176 563857.447277535
 -308.961304333742 135761.270392146 563887.206810390
 -273.545182702134 135666.559749803 563910.019186293
 -242.075990641305 135593.475158465 563927.611394996
 -214.608491347096 135536.623485948 563941.289175765
 -190.908993619928 135491.935551466 563952.036040543
 -170.600527443356 135456.355004508 563960.589743958
 -153.252286145141 135427.595579087 563967.501607498
 -138.433674026191 135403.954699508 563973.181887092
 -125.743082771631 135384.169191554 563977.934782018
 -114.823258822514 135367.305798200 563981.984939728
 -105.365087054582 135352.677207415 563985.497748819
 -97.1083018804317 135339.778782346 563988.594609079
 -89.8363566922267 135328.240939796 563991.364414003
 -83.3728549143304 135317.792915096 563993.872280147
 -77.5743855266154 135308.236812061 563996.165796387
 -72.3266417092225 135299.426681941 563998.280058011
 -67.5379626014695 135291.255422022 564000.240819945
 -63.1362016127266 135283.642182798 564002.067524204
 -59.0639763114847 135276.526857436 564003.774626409
 -55.2761181232489 135269.861814976 564005.373581766
 -51.7369781579043 135263.610802928 564006.873110460
 -48.4178588580201 135257.742892790 564008.280651320
 -45.2965020451249 135252.233761968 564009.602055342
 -42.3538649241842 135247.060947272 564010.842724920
 -39.5758094914717 135242.206051659 564012.007084988
 -36.9487594099158 135237.651178440 564013.099438770
 -34.4634700688912 135233.380878770 564014.123500792
 -32.1094082780809 135229.380116242 564015.082885523
 -29.8802560772410 135225.634913940 564015.980952040
 -27.7672453056213 135222.132434889 564016.820785286
 -25.7657393405314 135218.859433287 564017.605567138
 -23.8681834667423 135215.805049325 564018.337906821
 -22.0707603507743 135212.956408244 564019.020895771
 -20.3670246307116 135210.304522542 564019.656693014
 -18.7533119668964 135207.836766513 564020.248329112
 -17.2244356069208 135205.545866781 564020.797551105
 -15.7763345591339 135203.419519088 564021.307311570
 -14.4053346123325 135201.451866009 564021.779017274
 -13.1065408498567 135199.631181628 564022.215481421
 -11.8780239536618 135197.952555153 564022.617883191
 -10.7137730052145 135196.405266181 564022.988794179
 -9.61370206077152 135194.984724819 564023.329316113
 -8.57062222491686 135193.681773326 564023.641645558
 -7.58616046586187 135192.491418539 564023.926980495
 -6.65217082843585 135191.406676209 564024.186996139
 -5.77156735623801 135190.421425262 564024.423160512
 -4.93578805423739 135189.531407657 564024.636495088
 -4.14829051455862 135188.728778726 564024.828880772