# OOMMF OVF 2.0
#
# Segment count: 1
#
# Begin: Segment
# Begin: Header
#
# Title: Oxs_TimeDriver::Magnetization
# Desc: Oxs vector field output
# Desc:  MIF source file: C:/Users/Victor H. González/Documents/GitHub/Intro-to-magnetism-in-python/domain_wall_conversion_thin_film/drive-40/domain_wall_conversion_thin_film.mif
# Desc:  Iteration: 686, State id: 4833
# Desc:  Stage: 56, Stage iteration: 11
# Desc:  Stage simulation time: 2e-12 s
# Desc:  Total simulation time: 1.14e-10 s
# meshunit: m
# meshtype: rectangular
# xbase: 1.0000000000000001e-09
# ybase: 1.0000000000000001e-09
# zbase: 1.0000000000000001e-09
# xnodes: 225
# ynodes: 100
# znodes: 1
# xstepsize: 2.0000000000000001e-09
# ystepsize: 2.0000000000000001e-09
# zstepsize: 2.0000000000000001e-09
# xmin: 0
# ymin: 0
# zmin: 0
# xmax: 4.5000000000000003e-07
# ymax: 2.0000000000000002e-07
# zmax: 2.0000000000000001e-09
# valuedim: 3
# valuelabels: Magnetization_x Magnetization_y Magnetization_z
# valueunits: A/m A/m A/m
#
# End: Header
#
# Begin: Data Text
 0.000000000000000 -0.000000000000000 -0.000000000000000
 -0.000000000000000 0.000000000000000 0.000000000000000
 0.000000000000000 0.000000000000000 -0.000000000000000
 0.000000000000000 0.000000000000000 0.000000000000000
 0.000000000000000 0.000000000000000 0.000000000000000
 0.000000000000000 -0.000000000000000 0.000000000000000
 -0.000000000000000 -0.000000000000000 0.000000000000000
 -0.000000000000000 -0.000000000000000 -0.000000000000000
 -0.000000000000000 0.000000000000000 -0.000000000000000
 -0.000000000000000 -0.000000000000000 -0.000000000000000
 0.000000000000000 -0.000000000000000 -0.000000000000000
 0.000000000000000 0.000000000000000 0.000000000000000
 0.000000000000000 0.000000000000000 -0.000000000000000
 0.000000000000000 0.000000000000000 0.000000000000000
 0.000000000000000 0.000000000000000 -0.000000000000000
 -0.000000000000000 0.000000000000000 -0.000000000000000
 0.000000000000000 -0.000000000000000 -0.000000000000000
 -0.000000000000000 -0.000000000000000 0.000000000000000
 0.000000000000000 -0.000000000000000 -0.000000000000000
 -0.000000000000000 -0.000000000000000 -0.000000000000000
 0.000000000000000 -0.000000000000000 0.000000000000000
 0.000000000000000 -0.000000000000000 0.000000000000000
 0.000000000000000 0.000000000000000 -0.000000000000000
 -0.000000000000000 -0.000000000000000 0.000000000000000
 0.000000000000000 -0.000000000000000 0.000000000000000
 249514.970167697 337813.423857783 400030.461744722
 186235.783524904 336670.798278819 434014.984212721
 135163.827520737 331186.372200973 456559.225729043
 96048.6853238326 323538.339720431 471696.504946252
 67080.1103306876 315284.298140706 482178.462961532
 46108.2206513492 307346.224077716 489706.371751008
 31193.6229727944 300184.052312646 495294.349476137
 20727.0088414437 293981.000635889 499545.355668140
 13487.8562465666 288755.476382818 502830.341758335
 8530.66227847298 284439.626831592 505392.250127557
 5196.83105300426 280933.466150129 507394.698971010
 2973.26810704715 278110.632426334 508965.259922706
 1533.78390608444 275870.856555645 510189.100246354
 608.854834404331 274090.345340606 511149.793981038
 47.3346945611773 272703.989928045 511891.132602188
 -287.598724902703 271603.150006713 512475.995724096
 -465.531867183253 270762.083947838 512920.731864393
 -546.842093970213 270085.581996378 513277.195442582
 -573.234958805861 269579.765820000 513543.008191248
 -553.814458636480 269160.481496132 513762.910777253
 -532.885043231310 268853.326204544 513923.734636067
 -478.584754780684 268586.987789576 514063.032075596
 -453.660900247330 268391.606449437 514165.090004444
 -391.123065867811 268215.278996236 514257.144953494
 -376.869544434136 268076.668533015 514329.425327374
 -316.583018720179 267952.928811543 514393.942146006
 -314.118882510258 267836.161342118 514454.752147209
 -261.012015565284 267742.179837243 514503.699703636
 -265.026186013443 267625.231617318 514564.539356238
 -222.755225706429 267545.534651682 514606.001974379
 -225.183314521315 267415.203964185 514673.739354621
 -197.161091084445 267337.140577787 514714.303662912
 -189.566261063759 267186.736796210 514792.396743411
 -178.309443035998 267098.044633883 514838.423933664
 -153.806843204286 266925.870898250 514927.718994293
 -159.573591768893 266813.998751576 514985.693593970
 -114.436349694600 266622.004066121 515085.132625751
 -133.914239857932 266474.927200514 515161.232276321
 -68.6396130806690 266267.244084901 515268.619281279
 -94.3277917486518 266075.417860802 515367.697001342
 -13.8135840987987 265856.829777740 515480.499989782
 -34.5579323909839 265615.751570564 515604.762704297
 52.8707494130849 265390.426172497 515720.776099494
 50.0313668603720 265103.112431056 515868.527123170
 134.696239918237 264874.099540426 515986.136683508
 161.607205227954 264552.708887557 516150.983824856
 235.165029461478 264322.614203761 516268.825630502
 299.212352115747 263988.527141254 516439.704137628
 357.097224690750 263761.388749579 516555.710728733
 458.420105087960 263443.349256320 516717.903293103
 501.083416316467 263227.163077219 516828.027039681
 631.358110763443 262957.579801928 516965.098059481
 663.658704921625 262766.371780346 517062.272283055
 807.098840342364 262576.421137902 517158.555622812
 835.882192735984 262430.546668242 517232.548740282
 972.390596425907 262345.101552614 517275.653929195
 1003.12646844852 262268.821842131 517314.274717824
 1112.76012371215 262302.295788144 517297.078465726
 1146.67779839747 262318.673732119 517288.699414020
 1214.10037782580 262472.624918010 517210.447621587
 1247.18038293978 262597.070038480 517147.196983893
 1264.80000592729 262859.988756329 517013.565191444
 1289.16550450022 263094.721107378 516894.095321017
 1258.15966056286 263443.983672462 516716.251438884
 1265.23565565062 263775.664762809 516546.994820097
 1194.39849422551 264181.250735295 516339.849490790
 1178.34109541363 264582.896575351 516134.190256817
 1081.33824779222 265012.137670422 515914.137812628
 1041.19766867470 265448.701522387 515689.734983637
 933.172144370030 265871.092048745 515472.299549216
 873.026697631362 266306.691259257 515247.497825008
 767.515226719715 266697.754371650 515045.355996436
 694.865996072114 267102.125921067 514835.868495673
 601.722350600719 267445.598692962 514657.643166771
 525.133194039766 267798.061807274 514474.413676129
 449.738869612339 268086.183204452 514324.407460718
 376.753058584603 268376.622189838 514172.973540137
 320.379357300313 268608.862471870 514051.725372686
 256.308480267800 268836.323007742 513932.841660893
 217.214787559250 269017.240675987 513838.181762327
 164.859969096318 269187.248110248 513749.158905415
 139.636697710541 269324.199210034 513677.385351415
 99.6574091912584 269445.858447125 513613.589611970
 84.4198918376946 269547.082400106 513560.476714157
 55.9816860967722 269630.654680558 513516.608224684
 47.2029113532432 269703.974663568 513478.104521077
 28.6245350960954 269759.215257999 513449.087022291
 23.5678528085082 269811.350473681 513421.692763487
 12.8278938020629 269846.590968314 513403.172154424
 9.65278062728857 269882.940864716 513384.064942647
 4.72657003956226 269904.748244192 513372.600411143
 2.38346383945531 269929.469219958 513359.602657778
 1.43837913907994 269942.679156496 513352.656531302
 -0.537243572002727 269958.897452109 513344.127935787
 0.955383491083186 269966.848855350 513339.946349590
 -0.756914668247412 269976.901881679 513334.659310861
 1.95505290701714 269981.750406345 513332.109305179
 0.568825349938894 269987.397325594 513329.139329756
 3.60508387322027 269990.432607181 513327.542888155
 2.63517084223658 269993.012129726 513326.186156690
 5.39748657187727 269994.938598377 513325.172870108
 4.87985391001049 269995.475707717 513324.890370173
 7.02281831714994 269996.640061202 513324.277924142
 6.90758677361967 269995.915093439 513324.659241246
 8.28387289848765 269996.477012879 513324.363664936
 8.44158647386831 269995.072623638 513325.102335445
 9.04413656636404 269995.122130532 513325.076285898
 9.29592341224331 269993.460141208 513325.950439449
 9.20481183210537 269993.088407135 513326.145961462
 9.36322762217622 269991.463115535 513327.000806564
 8.70365386698397 269990.795244287 513327.352093772
 8.61339597913613 269989.404544787 513328.083548290
 7.52846547079148 269988.603211621 513328.505032752
 7.09890885476945 269987.575106615 513329.045776348
 5.73674714590941 269986.823668053 513329.441014954
 4.96068887205063 269986.234633985 513329.750826458
 3.47136831114362 269985.708179973 513330.027727297
 2.42675414783665 269985.591477012 513330.089113154
 0.962149223624124 269985.424347661 513330.177019515
 -0.203708319995392 269985.769635984 513329.995416227
 -1.49375697176036 269986.027684170 513329.859693639
 -2.59485963204579 269986.776596963 513329.465797599
 -3.57395041018042 269987.441372494 513329.116150994
 -4.42551982022759 269988.485544429 513328.566956721
 -4.98930979294793 269989.455276522 513328.056913504
 -5.44881617158731 269990.642882251 513327.432275287
 -5.54621966917310 269991.751628356 513326.849114570
 -5.54636942190970 269992.905642199 513326.242142481
 -5.19595436416486 269993.957660313 513325.688817463
 -4.76147010766678 269994.904594831 513325.190761331
 -4.05563968118114 269995.716836683 513324.763549742
 -3.29894149137449 269996.320177446 513324.446212875
 -2.39138986728494 269996.763033126 513324.213286219
 -1.48728665187208 269996.952631809 513324.113565030
 -0.564192591370307 269996.978715776 513324.099847295
 0.290815774572775 269996.767224115 513324.211087342
 1.04997476044687 269996.420484994 513324.393463030
 1.68376932362030 269995.900792617 513324.666806835
 2.14589832791418 269995.303118693 513324.981166162
 2.45025899113230 269994.625953234 513325.337335271
 2.55783623788917 269993.944497354 513325.695760710
 2.51087651364609 269993.281282683 513326.044591452
 2.29206380392446 269992.685208963 513326.358107978
 1.95762076744449 269992.186015052 513326.620668538
 1.51404948933850 269991.804531005 513326.821317374
 1.01861276099277 269991.562804526 513326.948458127
 0.494269901617337 269991.456029471 513327.004618735
 -0.0114137062980389 269991.489970621 513326.986767152
 -0.470985466282369 269991.640323445 513326.907686742
 -0.854063731062339 269991.895726494 513326.773353275
 -1.14013869250661 269992.221227293 513326.602150574
 -1.31920712628408 269992.593954265 513326.406108343
 -1.38475849744988 269992.978158288 513326.204029467
 -1.34562490455817 269993.348420084 513326.009283672
 -1.21030936325266 269993.676874763 513325.836527036
 -1.00080467636521 269993.944212549 513325.695915906
 -0.736241140615014 269994.135960340 513325.595062712
 -0.443655315499186 269994.244332241 513325.538062607
 -0.145340850796344 269994.269435014 513325.524859452
 0.134878779172018 269994.215798861 513325.553070505
 0.379177749959553 269994.095110776 513325.616548765
 0.573228175735718 269993.920792104 513325.708235013
 0.709154938233959 269993.710308159 513325.818943029
 0.785342730454798 269993.480168304 513325.939989391
 0.806407992429916 269993.247259561 513326.062492045
 0.784142126165322 269993.025657166 513326.179047858
 0.736488015377774 269992.827468499 513326.283288731
 0.689299757605729 269992.662253516 513326.370186438
 0.676402850084465 269992.538692842 513326.435175257
 0.742878073432278 269992.467648228 513326.472542249
 0.948342070717877 269992.467216832 513326.472768811
 1.37340489999656 269992.572221557 513326.417538881
 2.12835103686555 269992.848136871 513326.272413960
 3.36482567632841 269993.414519216 513325.974508336
 5.29136852088193 269994.480173521 513325.413989831
 8.19065545218608 269996.398565127 513324.404928086
 12.4388436025788 269999.751538426 513322.641244727
 18.5196270428190 270005.476363027 513319.629851615
 27.0270882436929 270015.055285567 513314.590858928
 38.6366315426373 270030.795213497 513306.310251079
 54.0168861246744 270056.235748579 513292.924766633
 73.6259787084926 270096.735045326 513271.612596167
 97.3069057850960 270160.300678137 513238.153754049
 123.532823231205 270258.746143905 513186.315944186
 148.070703623392 270409.274318558 513107.008758970
 161.688412783539 270636.595438582 512987.141228969
 146.327050876756 270975.691220238 512808.105782376
 68.8420551957127 271475.300805838 512543.809164788
 -129.043393294506 272202.131179632 512158.162220489
 -546.609030896003 273245.619007511 511601.928174406
 -1348.83526745533 274722.765640097 510808.753529614
 -2804.28667489026 276782.009899986 509689.959653876
 -5342.36162178777 279604.175835302 508126.917243875
 -9638.35927285534 283396.916490882 505957.794439405
 -16737.1183822557 288376.194300484 502950.334952696
 -28226.4888476360 294722.770824451 498740.166504456
 -46464.1290382944 302490.397212459 492687.166777218
 -74823.5615231587 311420.122936481 483548.282668047
 -117791.195728862 320581.783461573 468777.723789604
 -180329.813164680 327783.231074521 443214.746945924
 -0.000000000000000 -0.000000000000000 -0.000000000000000
 -0.000000000000000 -0.000000000000000 -0.000000000000000
 0.000000000000000 0.000000000000000 -0.000000000000000
 0.000000000000000 -0.000000000000000 0.000000000000000
 -0.000000000000000 -0.000000000000000 -0.000000000000000
 -0.000000000000000 -0.000000000000000 -0.000000000000000
 0.000000000000000 0.000000000000000 0.000000000000000
 0.000000000000000 0.000000000000000 -0.000000000000000
 0.000000000000000 0.000000000000000 -0.000000000000000
 0.000000000000000 0.000000000000000 -0.000000000000000
 -0.000000000000000 0.000000000000000 0.000000000000000
 -0.000000000000000 -0.000000000000000 0.000000000000000
 0.000000000000000 -0.000000000000000 -0.000000000000000
 -0.000000000000000 -0.000000000000000 -0.000000000000000
 -0.000000000000000 0.000000000000000 0.000000000000000
 -0.000000000000000 0.000000000000000 0.000000000000000
 -0.000000000000000 -0.000000000000000 -0.000000000000000
 0.000000000000000 0.000000000000000 -0.000000000000000
 0.000000000000000 -0.000000000000000 0.000000000000000
 -0.000000000000000 -0.000000000000000 -0.000000000000000
 -0.000000000000000 0.000000000000000 0.000000000000000
 0.000000000000000 -0.000000000000000 -0.000000000000000
 0.000000000000000 0.000000000000000 -0.000000000000000
 0.000000000000000 -0.000000000000000 0.000000000000000
 -0.000000000000000 0.000000000000000 0.000000000000000
 247505.242299035 272508.790131799 448196.513078135
 181578.479953734 269323.269844704 480514.549142738
 130222.582202993 261487.566242747 501065.197139882
 91702.9064868241 251924.354597092 514319.644290112
 63551.1922337194 242263.655368890 523134.368258267
 43385.8546928881 233317.176626018 529226.570292754
 29132.7365833380 225451.200337036 533594.452675208
 19217.3536362645 218751.649907029 536822.511620154
 12366.9979151321 213176.250626022 539261.479740208
 7734.26863899078 208619.339774277 541126.743157982
 4598.73663988408 204928.592376452 542570.846662372
 2559.21151278984 201994.834891320 543683.305899363
 1210.74661695190 199643.619988254 544555.744704447
 389.631932765547 197823.807564511 545220.679493760
 -132.102511548752 196354.842787470 545751.553605516
 -412.544841361672 195257.692988349 546144.910381504
 -566.805818570906 194342.763702320 546471.013803759
 -630.918265494623 193696.087720951 546700.491625662
 -627.526578713703 193118.932159282 546904.639084412
 -625.505573093203 192741.909084708 547037.626882429
 -555.149676440126 192368.797213972 547169.021114396
 -552.475682871667 192142.927794482 547248.380599874
 -452.614548576239 191895.903465458 547335.141730591
 -472.899716603686 191742.861713543 547388.757052754
 -360.445859708847 191578.917220397 547446.242616973
 -405.288193997329 191446.259804997 547492.616706525
 -292.127252088001 191341.907034226 547529.167509982
 -350.494053045712 191195.160836904 547580.393756450
 -249.750862587713 191135.186795136 547601.386040334
 -303.382146009164 190954.203789839 547664.495849660
 -230.280631990185 190923.787519186 547675.135760388
 -258.242119190731 190701.266817547 547752.645037147
 -227.626778900610 190681.203405787 547759.643323393
 -211.138633144503 190421.562048290 547849.964979068
 -233.172852287496 190386.701879158 547862.071490623
 -160.563021169122 190103.950058260 547960.274465005
 -236.133201542044 190024.951527625 547987.647705708
 -106.964254778770 189738.887327947 548086.802609040
 -224.426931486516 189586.980355624 548139.331294689
 -51.4840886162014 189317.841881882 548232.388768281
 -186.257677729281 189071.629207860 548317.320843290
 5.76214179249259 188834.225339865 548399.156916831
 -112.175031977386 188486.836360495 548518.641374725
 67.3516895031854 188285.881035860 548587.661605964
 2.89069187682697 187850.319388910 548736.965674017
 139.468193146096 187678.877389400 548795.608155238
 158.220980131243 187189.458163466 548962.732540734
 231.346347473649 187031.795077797 549016.442475855
 347.009003065597 186540.362572698 549183.551024608
 352.866537024514 186379.064591987 549238.308721290
 557.319127005372 185946.180290438 549384.844558699
 510.608408948606 185771.550284383 549443.964735250
 773.996431197908 185454.613924709 549550.713859568
 703.494185074729 185272.817343718 549612.125275137
 980.833853806618 185114.389094754 549665.080676431
 919.736710318129 184950.520088474 549720.346361117
 1162.28419126116 184970.249288777 549713.248861173
 1136.77394959665 184863.980994256 549749.048453876
 1304.45216499757 185056.313440571 549683.963073632
 1325.02154393415 185050.789944819 549685.773382127
 1395.74619642933 185388.542532060 549571.778924641
 1454.79127687277 185516.361466340 549528.491718702
 1427.87529560760 185958.328669398 549379.159752738
 1504.22268005931 186230.115486974 549286.884423648
 1397.48415080903 186729.982244114 549117.438048694
 1465.35971837527 187130.082991781 548981.042259553
 1307.85623374363 187644.252254961 548805.907500774
 1346.08504088012 188134.883908932 548637.816333904
 1169.51645673651 188627.870040461 548468.922433401
 1167.31768196071 189159.432231871 548285.825612103
 998.846527653328 189606.512986064 548131.710940791
 956.825000250825 190129.636706759 547950.550443810
 814.868819405567 190517.110574412 547816.179541262
 742.171679948332 190992.249707612 547650.810035758
 635.377366394789 191315.937546909 547537.951503044
 545.212255936889 191718.263649610 547397.305553082
 473.865851819248 191980.993370531 547305.283763659
 379.413080503874 192300.628685198 547193.132498017
 338.143686228024 192509.430902416 547119.735224818
 249.941238801795 192748.525927808 547035.595991737
 230.651728870779 192912.140379054 546977.927245837
 155.564757030887 193080.661302187 546918.489384585
 149.859617074354 193207.720883014 546873.618062973
 91.1962732452660 193319.395030590 546834.164247486
 91.9756425008530 193417.389375419 546799.510815142
 50.1959800887456 193486.580106796 546775.036737176
 52.4069543868635 193561.491045618 546748.522117535
 26.0020656546474 193601.200149492 546734.464456530
 26.7268633617213 193657.593574915 546714.491975883
 13.0333208516867 193678.450668379 546707.104011672
 11.1575965516139 193719.797054219 546692.454772133
 7.01668903521960 193729.767346378 546688.921777902
 2.70198669440081 193758.810134928 546678.629075435
 4.95131391228703 193763.353597412 546677.018703154
 -0.921106284455329 193782.413066889 546670.262942046
 4.89247416860852 193784.884830932 546669.386729426
 -1.41620552927441 193796.049061408 546665.429093685
 5.68071576912197 193798.195399475 546664.668172031
 -0.0524217019715305 193803.397609200 546662.823937322
 6.68651086232154 193805.854076575 546661.953021188
 2.22490257377377 193806.864526352 546661.594825825
 7.60152423257457 193809.599734324 546660.625061873
 4.71663757358024 193807.972553977 546661.201981876
 8.28495997481478 193810.646388328 546660.253976726
 6.91900859256337 193807.660363477 546661.312639337
 8.66304227693722 193809.883359672 546660.524491262
 8.49015799465544 193806.505107264 546661.722188435
 8.67523972762489 193807.999144812 546661.192506131
 9.22712871054850 193804.882423377 546662.297459521
 8.25840332404767 193805.553423396 546662.059588966
 9.04929102479863 193803.074173713 546662.938526958
 7.35837868721387 193803.014894623 546662.959567967
 7.98623495686443 193801.330996835 546663.556531872
 5.95728607872692 193800.775812885 546663.753379383
 6.16800658886496 193799.895335332 546664.065519191
 4.10345018075500 193799.149378194 546664.329990032
 3.81379446507863 193798.991809079 546664.385852270
 1.93102918616743 193798.354819052 546664.611682245
 1.21371964699578 193798.795171074 546664.455574685
 -0.340946424413084 193798.496548020 546664.561441119
 -1.30096642708889 193799.389787862 546664.244775676
 -2.43486543468172 193799.546272688 546664.189295926
 -3.40064738267367 193800.736462794 546663.767351482
 -4.06345124407262 193801.338219073 546663.554014702
 -4.80919766686078 193802.660908126 546663.085091541
 -4.99109795724809 193803.586066261 546662.757102536
 -5.35558477980937 193804.872784090 546662.300928516
 -5.09205223774921 193805.925243566 546661.927807814
 -5.01235487485071 193807.015714105 546661.541207052
 -4.38860256327907 193807.976742235 546661.200499744
 -3.90848787591544 193808.739116123 546660.930218122
 -3.05627444441456 193809.420751583 546660.688561556
 -2.30901381012645 193809.774933384 546660.562995850
 -1.39133111420577 193810.063046537 546660.460852952
 -0.562227300940225 193809.999057365 546660.483540806
 0.253566770728459 193809.876407766 546660.527024534
 0.975132904258274 193809.459858302 546660.674704594
 1.55002008482761 193809.004298500 546660.836214212
 2.01686406201404 193808.364437980 546661.063063583
 2.26966560422619 193807.723564577 546661.290271741
 2.40980721057538 193807.024856327 546661.537983543
 2.33424795263399 193806.374421178 546661.768581149
 2.16264745848547 193805.778251872 546661.979939624
 1.82593197139994 193805.275866870 546662.158049039
 1.43277824677169 193804.902772670 546662.290321203
 0.955182824238272 193804.649540307 546662.380099131
 0.475084255535048 193804.552765451 546662.414408708
 -0.00389338066010636 193804.572942929 546662.407255528
 -0.432171186855911 193804.730926336 546662.351246529
 -0.791188656132252 193804.974211655 546662.264995668
 -1.06242333555431 193805.303738421 546662.148169900
 -1.22817535133618 193805.667919291 546662.019058256
 -1.29517075994747 193806.053185981 546661.882471053
 -1.25635318005172 193806.418914233 546661.752810696
 -1.13519863377849 193806.746917667 546661.636524736
 -0.937502804725145 193807.013221990 546661.542112752
 -0.693935730840428 193807.204374163 546661.474344215
 -0.419191640993630 193807.314183567 546661.435413892
 -0.142186091752284 193807.339315862 546661.426503907
 0.120520271355926 193807.288350950 546661.444572449
 0.348584387840609 193807.168335728 546661.487121203
 0.530451158460185 193806.996652733 546661.547987570
 0.658117661843521 193806.786826849 546661.622376602
 0.729641739969164 193806.557996475 546661.703503205
 0.750281923030679 193806.324465792 546661.786296150
 0.729892964118437 193806.101285727 546661.865419469
 0.686802588696510 193805.899112744 546661.937095157
 0.644551949846252 193805.726933299 546661.998137277
 0.636777609033892 193805.592368205 546662.045844051
 0.706820875784202 193805.504274957 546662.077075253
 0.913939526128971 193805.479133421 546662.085988254
 1.33859374794421 193805.548310950 546662.061462198
 2.09195988703466 193805.774347196 546661.981324207
 3.32918340403633 193806.272149114 546661.804834196
 5.26457240158963 193807.246746185 546661.459297203
 8.19331603711397 193809.048124350 546660.820617321
 12.5111843252274 193812.258394990 546659.682379544
 18.7369847504859 193817.822413392 546657.709507381
 27.5195963229747 193827.244796321 546654.368332805
 39.6241477464682 193842.882694970 546648.822607742
 55.8572965813969 193868.373493568 546639.781427332
 76.8918051613354 193909.255531167 546625.278144909
 102.893658728853 193973.849230825 546602.355673183
 132.819880048227 194074.496660115 546566.621835804
 163.146942305817 194229.263671253 546511.634383751
 185.671709250517 194464.241183556 546428.059699464
 183.801499634003 194816.566743240 546302.545792518
 126.450698447140 195338.285008386 546116.231602947
 -41.8173592139001 196101.068007886 545842.806472225
 -416.437243498103 197201.676531882 545445.987567089
 -1157.30122111332 198767.706528610 544876.187307943
 -2526.44267928773 200962.642896548 544065.835398091
 -4945.27154059025 203988.288609176 542922.022393353
 -9080.22766137989 208081.094146797 541313.040415884
 -15968.7703742809 213496.093710572 539040.273396210
 -27200.3794205369 220466.680847848 535774.749307311
 -45166.2735223232 229116.202117426 530910.325444320
 -73375.2986013620 239267.434683644 523227.637128496
 -116766.732305930 250018.905594219 510152.993789181
 -181744.177538262 258751.137509059 486227.213109992
 -0.000000000000000 0.000000000000000 -0.000000000000000
 -0.000000000000000 -0.000000000000000 0.000000000000000
 -0.000000000000000 -0.000000000000000 -0.000000000000000
 0.000000000000000 0.000000000000000 0.000000000000000
 0.000000000000000 -0.000000000000000 -0.000000000000000
 -0.000000000000000 0.000000000000000 0.000000000000000
 0.000000000000000 0.000000000000000 -0.000000000000000
 -0.000000000000000 0.000000000000000 0.000000000000000
 0.000000000000000 0.000000000000000 0.000000000000000
 0.000000000000000 -0.000000000000000 -0.000000000000000
 -0.000000000000000 0.000000000000000 0.000000000000000
 -0.000000000000000 0.000000000000000 0.000000000000000
 -0.000000000000000 0.000000000000000 -0.000000000000000
 -0.000000000000000 -0.000000000000000 0.000000000000000
 -0.000000000000000 0.000000000000000 0.000000000000000
 0.000000000000000 0.000000000000000 -0.000000000000000
 -0.000000000000000 0.000000000000000 -0.000000000000000
 -0.000000000000000 0.000000000000000 0.000000000000000
 0.000000000000000 -0.000000000000000 0.000000000000000
 0.000000000000000 0.000000000000000 -0.000000000000000
 -0.000000000000000 -0.000000000000000 0.000000000000000
 -0.000000000000000 0.000000000000000 -0.000000000000000
 -0.000000000000000 -0.000000000000000 -0.000000000000000
 -0.000000000000000 0.000000000000000 -0.000000000000000
 0.000000000000000 -0.000000000000000 0.000000000000000
 243892.057563595 219556.194778190 478238.164089733
 175574.565756302 215986.685509014 508845.087961274
 123857.664070594 207131.383602033 527404.843529222
 85979.4943800516 196565.522510400 538859.463966593
 58851.1602332284 186108.460563327 546168.638651060
 39685.0663707255 176627.775597878 551024.250278059
 26344.6008561235 168415.535165219 554384.496104233
 17108.4688257280 161522.641053704 556792.364101265
 10842.9325658645 155849.394288218 558563.691187825
 6574.55811466128 151239.908687505 559895.762803928
 3784.47471225380 147559.191256101 560902.810500177
 1912.24727528780 144603.355690678 561681.593817488
 767.535634310300 142310.020520843 562269.747495282
 12.9494260717226 140451.590748385 562737.372571398
 -390.812438381617 139068.608733230 563080.606423842
 -641.254822833091 137901.393928820 563367.370678087
 -741.492391496369 137093.211953608 563564.460754292
 -769.432313087004 136347.142912806 563745.389864458
 -773.200501087694 135888.604276142 563856.089254046
 -700.280313927335 135396.430619895 563974.570510829
 -701.954471993990 135137.697105272 564036.621223307
 -577.439007644181 134803.409474631 564116.749758600
 -614.889318741271 134642.673059545 564155.096141571
 -460.083134735931 134416.240009602 564209.236671282
 -540.260444963166 134282.176876511 564241.087738173
 -370.538784448214 134140.071969922 564275.024959384
 -481.029029185634 133982.649706986 564312.340985529
 -315.550817120620 133912.742420625 564329.051037663
 -430.942062646601 133699.929074711 564379.431990887
 -294.749924467610 133689.882579779 564381.899442467
 -382.339157988008 133407.531949188 564448.655092732
 -303.230236991745 133436.722250183 564441.803206097
 -329.920990332910 133088.991338268 564523.880395420
 -331.850311465602 133124.585006801 564515.486715942
 -272.225919100006 132732.638334033 564607.804244625
 -367.234548997964 132730.560777204 564608.238847570
 -211.439431778072 132328.091208753 564702.781620930
 -392.552903729415 132239.088648351 564723.533541565
 -151.788301863140 131864.358191586 564811.267592133
 -389.502646186224 131644.296889595 564862.485375098
 -96.8285750207348 131329.862351005 564935.799785332
 -341.329399250623 130952.090640995 565023.391950275
 -46.2615385449782 130714.798087160 565078.436520898
 -236.232494319852 130181.242439466 565201.546628391
 6.66735117497679 130015.916110273 565239.649629741
 -70.2005129444058 129363.118441995 565389.404445158
 75.8926261020012 129243.069353008 565416.857959260
 151.676836442224 128540.097330245 565577.068464121
 180.319999518980 128425.824049586 565603.019088373
 415.979865680471 127763.083236946 565752.968637850
 338.472487691792 127617.567838930 565785.862155685
 703.607650433355 127088.573728440 565904.585035274
 561.073938668517 126894.347257636 565948.327879935
 993.259245654382 126575.360658290 566019.161787209
 843.945005233891 126346.559590781 566070.520903890
 1264.31600940899 126280.265214101 566084.530898421
 1164.22692160103 126063.688906917 566133.015213611
 1498.17408835512 126251.917766646 566090.283201050
 1482.35692795500 126115.026796172 566120.837484489
 1678.27697363642 126522.197729828 566029.431097018
 1750.28679106878 126531.686404419 566027.091959213
 1790.20333641109 127096.721958566 565900.360875836
 1923.80258812840 127295.929798485 565855.145103711
 1823.19624906745 127947.821950882 565708.432687249
 1974.71177267204 128342.091456682 565618.606548564
 1773.22072178885 129014.115726081 565466.368258705
 1898.33384675374 129569.523490536 565338.955769936
 1645.93953393317 130208.885514131 565192.831709867
 1713.56910491443 130863.586667424 565041.401461397
 1457.37751092464 131435.637561249 564909.328325935
 1455.98618413692 132117.895043580 564750.158843258