# OOMMF OVF 2.0
#
# Segment count: 1
#
# Begin: Segment
# Begin: Header
#
# Title: Oxs_TimeDriver::Magnetization
# Desc: Oxs vector field output
# Desc:  MIF source file: C:/Users/Victor H. González/Documents/GitHub/Intro-to-magnetism-in-python/domain_wall_conversion_thin_film/drive-40/domain_wall_conversion_thin_film.mif
# Desc:  Iteration: 1418, State id: 9967
# Desc:  Stage: 117, Stage iteration: 11
# Desc:  Stage simulation time: 2e-12 s
# Desc:  Total simulation time: 2.36e-10 s
# meshunit: m
# meshtype: rectangular
# xbase: 1.0000000000000001e-09
# ybase: 1.0000000000000001e-09
# zbase: 1.0000000000000001e-09
# xnodes: 225
# ynodes: 100
# znodes: 1
# xstepsize: 2.0000000000000001e-09
# ystepsize: 2.0000000000000001e-09
# zstepsize: 2.0000000000000001e-09
# xmin: 0
# ymin: 0
# zmin: 0
# xmax: 4.5000000000000003e-07
# ymax: 2.0000000000000002e-07
# zmax: 2.0000000000000001e-09
# valuedim: 3
# valuelabels: Magnetization_x Magnetization_y Magnetization_z
# valueunits: A/m A/m A/m
#
# End: Header
#
# Begin: Data Text
 0.000000000000000 -0.000000000000000 -0.000000000000000
 -0.000000000000000 0.000000000000000 0.000000000000000
 0.000000000000000 0.000000000000000 -0.000000000000000
 0.000000000000000 0.000000000000000 0.000000000000000
 0.000000000000000 0.000000000000000 0.000000000000000
 0.000000000000000 -0.000000000000000 0.000000000000000
 -0.000000000000000 -0.000000000000000 0.000000000000000
 -0.000000000000000 -0.000000000000000 -0.000000000000000
 -0.000000000000000 0.000000000000000 -0.000000000000000
 -0.000000000000000 -0.000000000000000 -0.000000000000000
 0.000000000000000 -0.000000000000000 -0.000000000000000
 0.000000000000000 0.000000000000000 0.000000000000000
 0.000000000000000 0.000000000000000 -0.000000000000000
 0.000000000000000 0.000000000000000 0.000000000000000
 0.000000000000000 0.000000000000000 -0.000000000000000
 -0.000000000000000 0.000000000000000 -0.000000000000000
 0.000000000000000 -0.000000000000000 -0.000000000000000
 -0.000000000000000 -0.000000000000000 0.000000000000000
 0.000000000000000 -0.000000000000000 -0.000000000000000
 -0.000000000000000 -0.000000000000000 -0.000000000000000
 0.000000000000000 -0.000000000000000 0.000000000000000
 0.000000000000000 -0.000000000000000 0.000000000000000
 0.000000000000000 0.000000000000000 -0.000000000000000
 -0.000000000000000 -0.000000000000000 0.000000000000000
 0.000000000000000 -0.000000000000000 0.000000000000000
 250216.307276349 337782.288795166 399618.474234222
 186956.878058351 336650.568464902 433720.555771724
 135865.681973091 331180.305008678 456355.258582988
 96714.5505920843 323546.731440112 471554.671568622
 67700.1404471978 315311.901905956 482073.744877149
 46685.0395724040 307394.887367584 489621.170192214
 31722.9697931416 300259.480181843 495215.001538153
 21217.6087625739 294085.329788021 499463.343882081
 13933.7710422194 288891.874375662 502739.828285227
 8943.58286246577 284610.778888933 505288.746031234
 5568.39319594780 281138.068078585 507277.418849150
 3317.00962699356 278353.720112258 508830.230967855
 1840.20958650107 276145.575472243 510039.444333261
 891.621050456827 274406.105791081 510979.935140781
 298.172754574832 273047.814881698 511707.730918087
 -57.7128066646826 271990.145960872 512270.785004782
 -260.446196093991 271173.365381107 512703.557697490
 -361.849717185077 270541.953973117 513036.957933042
 -404.140598759360 270057.952998631 513291.865016937
 -405.877350186588 269685.276431482 513487.767078878
 -390.601573621058 269400.279859176 513637.359079543
 -360.009940911100 269181.359658333 513752.144526263
 -330.144076428911 269012.683803033 513840.507315235
 -294.369106647728 268883.796477874 513907.985283820
 -265.761906101922 268781.692177682 513961.410341975
 -234.391539917446 268705.063898653 514001.491919846
 -211.231769078577 268640.290962455 514035.358173684
 -186.768580436105 268593.893015255 514059.613033749
 -168.667349894602 268549.711810516 514082.701360213
 -151.127306223283 268520.760384713 514097.829603425
 -136.256534260675 268487.960389411 514114.964341723
 -124.996416855830 268468.915107668 514124.912834233
 -111.439751055511 268442.792866204 514138.555779835
 -105.719848430699 268428.981493440 514145.767966350
 -92.0474253890438 268407.504228265 514156.983032639
 -91.0584675328852 268395.790671010 514163.097915864
 -76.5708551812924 268378.444637318 514172.154624265
 -79.2835269623216 268366.562936474 514178.355837530
 -64.0955189431323 268353.578611642 514185.134691863
 -69.1158868522522 268339.885313917 514192.280351142
 -54.1245783690317 268331.668354997 514196.570222279
 -59.6521012253695 268315.140082898 514205.194493329
 -46.3860727885462 268311.832195632 514206.921921667
 -50.3193595583804 268292.175351999 514217.177963605
 -40.6621506502552 268293.332355478 514216.575151154
 -40.8568608476046 268271.095383853 514228.176700056
 -36.6589745626881 268275.505597136 514225.876199088
 -31.3038416848635 268252.104596203 514238.084353714
 -33.9297214635760 268257.781439471 514235.122824129
 -21.9714863637454 268235.376126141 514246.810891154
 -31.8593188426119 268239.746825035 514244.530557423
 -13.3812868971445 268220.939802489 514254.341034095
 -29.7131559240557 268221.221817331 514254.193258496
 -6.16275099415265 268208.598596174 514260.777817147
 -26.7418798204067 268202.314582682 514264.054486957
 -0.916231208056767 268197.888741432 514266.363350549
 -22.3222910815502 268183.430026262 514273.903052706
 1.94029598167635 268188.097578810 514271.469472392
 -16.1037583781447 268165.217015150 514283.400591431
 2.31113358642853 268178.345475268 514276.554990412
 -8.12416263633422 268148.453569849 514292.141474178
 0.515109621597047 268167.725264909 514282.092947032
 1.13837678258216 268133.885185695 514299.737131888
 -2.70079833073915 268155.477217585 514288.479387702
 10.8013944725947 268122.045168557 514305.909724903
 -6.24442558450899 268141.163822115 514295.942260026
 19.7080326551656 268113.094458475 514310.575617005
 -8.85486699438836 268124.801617606 514304.472738777
 26.6367924275170 268106.719715021 514313.898445427
 -9.34493337983222 268106.910785321 514313.799447209
 30.5561033268577 268102.121300701 514316.295309013
 -6.86132811946534 268088.458099961 514323.418275415
 30.8724413205289 268098.107161528 514318.387755384
 -1.10356903843871 268070.692186632 514332.678321494
 27.6136905342923 268093.286034407 514320.901014880
 7.55402089292309 268054.895956343 514340.910969341
 21.4958071582067 268086.327890719 514324.528227073
 18.0757228369200 268042.102936170 514347.577739823
 13.8420888366173 268076.237544750 514329.787852354
 28.9241317156874 268032.836680324 514352.406064649
 6.35740498622850 268062.576410054 514336.908152610
 38.3447460735308 268026.932661326 514355.482033429
 0.796670510240800 268045.573004250 514345.769684352
 44.7233846778673 268023.489366120 514357.275780004
 -1.40295752061797 268026.085568094 514355.924874085
 46.9421329195607 268020.970985044 514358.587863244
 0.557437871196415 268005.414696906 514366.695746166
 44.6520814216034 268017.451444771 514360.422007021
 6.64248035426220 267985.000684169 514377.331697445
 38.3930495769381 268010.954849139 514363.807636994
 15.9624062758930 267966.069452172 514387.194015904
 29.5219554203690 267999.819625331 514369.610114405
 26.9419959801535 267949.305525045 514395.926250175
 19.9563091327277 267983.002194400 514378.372539731
 37.6486967295760 267934.627675145 514403.571017113
 11.7856597409082 267960.246542148 514390.227487041
 46.2117606706666 267921.123331883 514410.604028586
 6.83826130827487 267932.077430570 514404.900673562
 51.2392305561204 267907.164869194 514417.873315354
 6.30286502273721 267899.618729436 514421.805763419
 52.1354256523123 267890.690388249 514426.452746362
 10.4933846008263 267864.282101078 514440.206694969
 49.2417687701643 267869.592354536 514437.439410336
 18.8109572221399 267827.403399327 514459.407178567
 43.7651579877522 267842.129829765 514451.738818003
 29.9117512452140 267789.917073005 514478.920286653
 37.5101643879749 267807.272808861 514469.885633424
 42.0400508500148 267752.150142956 514498.575631127
 32.4796289781206 267764.903709741 514491.938990678
 53.4458616800771 267713.789273765 514518.536280494
 30.4395537344174 267715.837571325 514517.472382539
 62.7850271251011 267674.033536876 514539.218940734
 32.5509314815125 267661.669142564 514545.653768695
 69.4044783993856 267631.901252239 514561.133991997
 39.1525849691058 267604.499048892 514575.388602940
 73.4456820827472 267586.622607200 514584.681085050
 49.7402479644888 267546.620609934 514605.483186986
 75.7474080886927 267538.029795897 514609.946343111
 63.1373190149424 267490.255542786 514634.782348933
 77.5807212244248 267486.858126782 514636.546225290
 77.8040505089086 267437.408658093 514662.244969236
 80.2899277410838 267434.894045996 514663.551264449
 92.1972738496901 267389.873468513 514686.940835063
 84.9325500491270 267384.942798511 514689.503634083
 105.082483457076 267349.372796897 514707.977228620
 92.0056586662489 267340.629047046 514712.521312323
 115.718286907739 267317.774358253 514724.386561807
 101.318531784042 267306.076869917 514730.464420914
 123.875160029539 267297.293669184 514735.020619420
 112.031355007076 267285.532649215 514741.130555351
 129.703142624253 267290.594282847 514738.498059955
 122.837743441416 267282.992684828 514742.446989105
 133.509300364978 267300.720352301 514733.238750333
 132.236134914952 267301.880707963 514732.636505196
 135.530037934695 267330.842949774 514717.594452893
 138.819455930571 267344.797194875 514710.345866478
 135.777933727907 267383.856188324 514690.057232714
 141.516761527298 267413.341712931 514674.736748297
 134.010641756854 267461.905001288 514649.503462531
 139.741750961598 267507.997852921 514625.544990690
 129.823129238684 267565.948484054 514595.420070742
 133.433150391857 267628.069300007 514563.114416827
 122.821350769557 267695.454176448 514528.064082204
 123.000764776598 267771.662687672 514488.407578141
 112.810631622135 267848.284098871 514448.524129530
 109.209958721306 267935.723100974 514402.990231923
 99.9329041368359 268020.786716971 514358.676315498
 93.0424932582868 268116.136127203 514308.981927512
 84.7105442767684 268208.067087509 514261.048080938
 75.5646545080801 268307.911904128 514208.964040525
 67.9895668686340 268404.382011672 514158.616668390
 57.8201291500059 268505.459296439 514105.840255526
 50.8070968356941 268603.600280615 514054.572331510
 40.7517716225354 268702.942407720 514002.652795418
 34.2263707453026 268799.673817878 513952.073820077
 25.1480209276450 268894.690636039 513902.368855531
 19.1834326078845 268987.074782251 513854.019379126
 11.6076593545812 269075.613913969 513807.662323250
 6.37708537358855 269161.161016345 513762.853230619
 0.519236903384021 269241.564248571 513720.721872023
 -3.78434010832965 269318.438092817 513680.424864452
 -7.94428905943964 269389.588723013 513643.114841943
 -11.1814099924265 269456.694843874 513607.914151244
 -13.8120442741005 269518.038330267 513575.726474522
 -15.9378515123674 269575.004129032 513545.827453419
 -17.2781259252688 269626.526548818 513518.778510276
 -18.3420635930510 269673.601548910 513494.058671771
 -18.6356684281683 269715.763992658 513471.913843950
 -18.7410070483845 269753.679252742 513451.995982472
 -18.1736457013289 269787.326000698 513434.317512095
 -17.3989212492722 269817.159887195 513418.640027498
 -16.0183517061526 269843.442864248 513404.826707523
 -14.2946721569917 269866.557059428 513392.677369432
 -11.8850140384485 269886.957734015 513381.953231533
 -8.81205943565547 269905.113050074 513372.408561051
 -4.69356073403328 269921.721375873 513363.676458956
 0.717383021856812 269937.595377549 513355.329768058
 7.95412276308608 269953.975208519 513346.716368042
 17.5411776275153 269972.550647554 513336.947422607
 30.1851177794119 269995.873077288 513324.680499673
 46.5131464033181 270027.661091466 513307.958327162
 67.0127641615228 270073.462447581 513283.859468486
 91.4958248955332 270141.428967898 513248.088144219
 118.467737010497 270243.520415620 513194.335158493
 143.667890192006 270397.046790551 513113.453776537
 157.897036676776 270626.833285875 512992.292509531
 143.072196666418 270967.934026052 512812.205646472
 66.0778228667208 271469.180833903 512547.051002238
 -131.380998846171 272197.324401211 512160.716306762
 -548.562611608890 273241.877167225 511603.924575636
 -1350.45734659057 274719.863225471 510810.310207551
 -2805.61769886710 276779.782796279 509691.161728917
 -5343.44332930791 279602.469454657 508127.844826717
 -9639.23023183023 283395.624212855 505958.501675330
 -16737.8115111726 288375.212347606 502950.874906576
 -28227.0408710096 294722.030232083 498740.572902932
 -46464.5677084755 302489.829583344 492687.473908465
 -74823.9224376660 311419.681292862 483548.511252485
 -117791.506918040 320581.420305108 468777.893946736
 -180330.109906682 327782.905440847 443214.867036070
 -0.000000000000000 -0.000000000000000 -0.000000000000000
 -0.000000000000000 -0.000000000000000 -0.000000000000000
 0.000000000000000 0.000000000000000 -0.000000000000000
 0.000000000000000 -0.000000000000000 0.000000000000000
 -0.000000000000000 -0.000000000000000 -0.000000000000000
 -0.000000000000000 -0.000000000000000 -0.000000000000000
 0.000000000000000 0.000000000000000 0.000000000000000
 0.000000000000000 0.000000000000000 -0.000000000000000
 0.000000000000000 0.000000000000000 -0.000000000000000
 0.000000000000000 0.000000000000000 -0.000000000000000
 -0.000000000000000 0.000000000000000 0.000000000000000
 -0.000000000000000 -0.000000000000000 0.000000000000000
 0.000000000000000 -0.000000000000000 -0.000000000000000
 -0.000000000000000 -0.000000000000000 -0.000000000000000
 -0.000000000000000 0.000000000000000 0.000000000000000
 -0.000000000000000 0.000000000000000 0.000000000000000
 -0.000000000000000 -0.000000000000000 -0.000000000000000
 0.000000000000000 0.000000000000000 -0.000000000000000
 0.000000000000000 -0.000000000000000 0.000000000000000
 -0.000000000000000 -0.000000000000000 -0.000000000000000
 -0.000000000000000 0.000000000000000 0.000000000000000
 0.000000000000000 -0.000000000000000 -0.000000000000000
 0.000000000000000 0.000000000000000 -0.000000000000000
 0.000000000000000 -0.000000000000000 0.000000000000000
 -0.000000000000000 0.000000000000000 0.000000000000000
 248205.328836612 272545.270958674 447786.991788699
 182296.009811011 269363.327704902 480220.327032005
 130923.671586502 261530.959516102 500859.810159386
 92365.0278572442 251980.138626597 514173.814353329
 64176.2747536828 242331.652435596 523026.553806375
 43960.4817282472 233409.737879053 529138.328142511
 29673.9660964932 225567.937779051 533515.286737137
 19706.3632194103 218901.386294794 536743.739904698
 12830.4482135658 213360.709972782 539177.695234650
 8145.31227374621 208838.353514819 541036.224285567
 4991.52825287851 205191.202949859 542468.114157588
 2901.10210865651 202287.250504703 543572.857940683
 1539.53134970412 199988.089708382 544428.502025762
 672.336855891976 198189.049085033 545087.744116416
 138.976009955775 196780.895227046 545598.075472514
 -177.904491177807 195693.813213852 545988.919136473
 -347.359713708835 194848.223547418 546291.176133795
 -432.599424112212 194202.337782764 546521.056188549
 -453.633859244780 193701.155591239 546698.871902019
 -452.043430114089 193320.581252134 546833.565649617
 -420.257696488008 193025.933629794 546937.667682356
 -393.780791682068 192800.654881593 547017.140877612
 -349.099024254888 192628.442405125 547077.838434758
 -321.388499768458 192491.482346530 547126.060367688
 -279.153782783646 192391.744829193 547161.163273440
 -256.834389785667 192303.291729590 547192.267878541
 -222.376860197868 192246.821503223 547212.125386892
 -204.945116172702 192183.938489625 547234.220223950
 -180.042951907693 192153.574921281 547244.891460402
 -164.418161043005 192103.818612342 547262.364722100
 -149.833322973106 192088.982969904 547267.576393452
 -132.505521244347 192046.530644435 547282.479629782
 -128.651022134658 192039.943652386 547284.791941913
 -106.807801182648 192003.202924209 547297.687423342
 -113.573665013399 191999.082160499 547299.131691754
 -85.7933966241387 191969.087076124 547309.658462787
 -102.078007501083 191962.370626119 547312.011419155
 -68.7756179339390 191941.530767814 547319.325473186
 -92.0497940503734 191927.816879845 547324.131237215
 -55.6686236008863 191918.792824657 547327.300490055
 -81.7901185651364 191894.747299287 547335.728113303
 -46.6625529859322 191899.389096631 547334.104808887
 -70.0803244224022 191863.384098962 547346.724600451
 -41.8890125550237 191881.793124066 547340.274155670
 -56.2925696482621 191834.534670920 547356.838030491
 -41.1283496010517 191864.388828753 547346.375349128
 -40.4973299692783 191809.293866408 547365.685028241
 -43.6071229375114 191845.603471191 547352.959731829
 -23.5078999231668 191788.723081102 547372.894055139
 -47.9299441730546 191824.154007192 547360.476872550
 -6.80974618598912 191773.518321530 547378.221729919
 -52.1753894216237 191799.332543996 547369.174610159
 7.65399101662685 191763.713434015 547381.656754602
 -54.1586072810293 191771.249083868 547379.014113309
 17.8348066972589 191758.482088719 547383.489181900
 -51.8269764094070 191740.952167592 547389.627756893
 22.0234181998271 191756.100431777 547384.323361719
 -43.7177027939444 191710.366605995 547400.341089186
 19.3055200123369 191754.110854832 547385.020435862
 -29.3780420900506 191682.023093822 547410.267678266
 9.92554146133475 191749.688766476 547386.569765320
 -9.63973632628550 191658.602170736 547418.468925771
 -4.54473716720702 191740.165568466 547389.905722714
 13.3445842524983 191642.364976259 547424.153438839
 -21.3089252355811 191723.613348910 547395.702970316
 36.3535953923047 191634.583436183 547426.876495534
 -36.7439706200754 191699.363552496 547404.194963327
 55.6276828568616 191635.101515794 547426.693514841
 -47.0485251874949 191668.325417783 547415.062651713
 67.5988966885267 191642.149123698 547424.224993413
 -49.0278568756608 191632.997272398 547427.430763810
 69.6817435425821 191652.489008215 547420.604838190
 -40.8507634546144 191597.123077472 547439.988272368
 60.9504810364726 191661.909492986 547417.307668054
 -22.5980469441838 191565.026517448 547451.221667006
 42.5305275037951 191665.994504646 547415.879146467
 3.55037138611732 191540.736822575 547459.721006816
 17.5770544902442 191661.025554823 547417.620262922
 33.5738956809150 191527.083459715 547464.496724864
 -9.20201173647648 191644.819236629 547423.294329976
 62.3026070644997 191524.963194137 547465.235966512
 -32.4151648781517 191617.296264090 547432.928057582
 84.4250010119950 191532.962954928 547462.434304059
 -47.0828237204398 191580.622313249 547445.762553037
 95.6093766094459 191547.455857076 547457.361822388
 -49.7228139530063 191538.850952550 547460.378569462
 93.4905564553037 191563.186906774 547451.857866641
 -39.1727785749732 191497.114726851 547474.979808927
 78.2844271553032 191574.250231646 547447.988871757
 -16.9420012663563 191460.523050120 547487.778700441
 52.8634695385083 191575.258351129 547447.639133782
 13.0150952820451 191433.005560761 547497.401101212
 22.2449240894054 191562.443685723 547452.125463330
 45.0797832534592 191416.365382120 547503.217371105
 -7.41733562479969 191534.433331146 547461.926341458
 73.1474514281822 191409.769848443 547505.520205976
 -30.1213193657709 191492.505148486 547476.592709372
 91.9455231267385 191409.813081165 547505.502257516
 -41.2937517185860 191440.252819185 547494.865633781
 98.1894896302517 191411.155218782 547505.031955539
 -38.7576498185669 191382.730155187 547514.976138728
 91.3046075717114 191407.606842486 547506.273668440
 -23.1615913235386 191325.273683705 547535.057428650
 73.5386006445146 191393.417747140 547511.236629116
 2.23188034939116 191272.283714251 547553.571331385
 49.4353393122749 191364.475901979 547521.355673829
 32.3475625094502 191226.256561619 547569.646488066
 24.7948227690024 191319.141572337 547537.200063376
 61.4944834652674 191187.300738672 547583.246871824
 5.37038054354552 191258.530727648 547558.375330942
 84.6681544546883 191153.252313156 547595.130512869
 -4.38332642185426 191186.199343722 547583.634855251
 98.6441869207893 191120.358397847 547606.609597805
 -2.21473337668837 191107.330410510 547611.165206174
 102.605253678999 191084.359629042 547619.171484455
 11.5725871173113 191027.648509579 547638.966264250
 98.1652882467621 191041.707613318 547634.053283544
 34.3817875679525 190952.349590789 547665.225300685
 88.8103839836978 190990.626032596 547651.871977439
 62.1026852228150 190885.318921987 547688.589586553
 78.9229705768349 190931.771115747 547672.395278208
 90.1841654440484 190828.821989011 547708.273230470
 72.6547034305318 190868.355156130 547694.500356985
 114.706407158520 190783.715580412 547723.982231719
 72.9382528977193 190805.735299971 547716.318961420
 133.174837794415 190750.077605145 547735.693704631
 80.8743916504856 190750.599881583 547735.522039742
 144.849797602762 190728.036293913 547743.366176171
 95.6164187882735 190709.970002399 547749.667456936
 150.568213812913 190718.526318102 547746.675981027
 114.733776935123 190690.252973346 547756.528265179
 152.162719546212 190723.726920926 547744.864728003
 134.911797846310 190696.536063649 547754.336296968
 151.693283127575 190747.037414160 547736.747632354
 152.769986187745 190732.214244979 547741.909215041
 150.742862278604 190792.587466587 547720.883155274
 165.575631796617 190798.938404884 547718.666550885
 149.982973713712 190864.418410176 547695.856557317
 171.689020734155 190896.786291164 547684.569352274
 149.106949415844 190965.562862997 547660.598881767
 170.676586046514 191024.521708406 547640.030472187
 147.099048947274 191097.265734167 547614.657757437
 163.132786266809 191179.823942253 547585.836472332
 142.703251340770 191258.530288556 547558.356915173
 150.325825627106 191359.425561097 547523.102390277
 134.910663585241 191446.065999983 547492.817863617
 133.806345213046 191559.166508125 547453.256290046
 123.307828405102 191654.603007927 547419.855267466
 115.092455644158 191774.027546038 547378.031265868
 108.201524338430 191877.459656457 547341.784233777
 95.4877158756278 191998.226793291 547299.435218353
 90.5238719370604 192107.223282585 547261.186791174
 76.0279750953963 192225.444240162 547219.675090745
 71.5896214920581 192336.423696943 547180.678564582
 57.5115585434194 192449.191012743 547141.028959592
 52.8051107132696 192558.120518483 547102.702820969
 40.5556548026190 192663.283228208 547065.679467252
 35.4158690762906 192766.365089983 547029.365971985
 25.6361767641537 192862.336775928 546995.537821027
 20.3433648460916 192956.521790693 546962.320717419
 13.0955463103045 193042.184721303 546932.093359434
 8.12181710412839 193125.443416145 546902.699791612
 3.12800029712505 193200.136647840 546876.318000214
 -1.08142472605931 193271.500658155 546851.101335798
 -4.23426722877236 193335.040504302 546828.640522121
 -7.38843088340731 193394.475619025 546807.623159602
 -9.10952864905814 193447.157139755 546788.987920902
 -11.0977654482958 193495.346776023 546771.936599590
 -11.7099686345837 193537.902094524 546756.874959727
 -12.5428379289920 193576.016852758 546743.381799998
 -12.2227953587546 193609.544607816 546731.510055308
 -11.9068525232620 193639.068310776 546721.054178418
 -10.6035977344006 193664.992885968 546711.871480803
 -8.95402363681314 193687.690873276 546703.830537160
 -6.23916493136264 193707.873620725 546696.679757990
 -2.61718692275672 193726.057261664 546690.236542597
 2.56606866616864 193743.304722686 546684.124397762
 9.58704219543121 193760.721343684 546677.951606303
 19.2286859971513 193780.194856988 546671.048905505
 32.1164275466152 193804.249912824 546662.520833707
 49.1482263491209 193836.807039008 546650.976237466
 70.8937375713986 193883.560050768 546634.393462503
 97.6059412188461 193953.039778548 546609.740888087
 128.147513443477 194057.709139390 546572.583562135
 159.085039725198 194215.802173989 546516.419586699
 182.126859529079 194453.483469933 546431.889256306
 180.765159345257 194808.037846106 546305.588214607
 123.839727224884 195331.536753159 546118.645912562
 -44.0183820358593 196095.787984430 545844.703186856
 -418.295388541803 197197.542306769 545447.480823899
 -1158.84120512701 198764.520089775 544877.346418937
 -2527.71345312308 200960.174162111 544066.741370425
 -4946.30692467496 203986.415899420 542922.716577890
 -9081.06007956106 208079.656564354 541313.579057363
 -15969.4401866004 213495.017079296 539040.679969924
 -27200.9074640714 220465.856447307 535775.061732147
 -45166.7029870782 229115.581825970 530910.556596706
 -73375.6466822786 239266.947190875 523227.811240874
 -116767.040645500 250018.511280962 510153.116461855
 -181744.467229936 258750.784006748 486227.292947651
 -0.000000000000000 0.000000000000000 -0.000000000000000
 -0.000000000000000 -0.000000000000000 0.000000000000000
 -0.000000000000000 -0.000000000000000 -0.000000000000000
 0.000000000000000 0.000000000000000 0.000000000000000
 0.000000000000000 -0.000000000000000 -0.000000000000000
 -0.000000000000000 0.000000000000000 0.000000000000000
 0.000000000000000 0.000000000000000 -0.000000000000000
 -0.000000000000000 0.000000000000000 0.000000000000000
 0.000000000000000 0.000000000000000 0.000000000000000
 0.000000000000000 -0.000000000000000 -0.000000000000000
 -0.000000000000000 0.000000000000000 0.000000000000000
 -0.000000000000000 0.000000000000000 0.000000000000000
 -0.000000000000000 0.000000000000000 -0.000000000000000
 -0.000000000000000 -0.000000000000000 0.000000000000000
 -0.000000000000000 0.000000000000000 0.000000000000000
 0.000000000000000 0.000000000000000 -0.000000000000000
 -0.000000000000000 0.000000000000000 -0.000000000000000
 -0.000000000000000 0.000000000000000 0.000000000000000
 0.000000000000000 -0.000000000000000 0.000000000000000
 0.000000000000000 0.000000000000000 -0.000000000000000
 -0.000000000000000 -0.000000000000000 0.000000000000000
 -0.000000000000000 0.000000000000000 -0.000000000000000
 -0.000000000000000 -0.000000000000000 -0.000000000000000
 -0.000000000000000 0.000000000000000 -0.000000000000000
 0.000000000000000 -0.000000000000000 0.000000000000000
 244606.319585107 219658.944041299 477826.010930433
 176308.978450703 216088.435769401 508547.866030724
 124572.396378013 207241.350432625 527193.266963360
 86666.8759673082 196681.493897359 538707.009949166
 59490.9425766736 186248.181865899 546051.684827532
 40295.8252228033 176787.184018799 550928.795795170
 26899.6691374817 168611.430238168 554298.289184924
 17643.1671055356 161751.883898318 556709.122172281
 11317.0648361041 156118.805096563 558479.044135693
 7037.95261315208 151555.119440738 559804.888326566
 4184.49649932597 147908.751918915 560807.891434166
 2309.15611539126 145011.656332186 561574.827895473
 1102.63390281636 142739.410309315 562160.337397638
 347.955161225431 140954.394512334 562611.533471246
 -109.021707271868 139574.953298896 562955.433871881
 -363.825290798439 138496.949119042 563221.504131257
 -499.552734337662 137674.629756806 563422.973234489
 -545.275708340931 137032.064296790 563579.556077899
 -556.971041399413 136546.799064253 563697.313678685
 -524.384870774322 136166.877277824 563789.239479536
 -498.148561875693 135879.782429465 563858.525319013
 -442.942715649453 135656.636402033 563912.298856690
 -412.805861986255 135482.316523368 563954.228196564
 -357.106030709017 135352.981000053 563985.321626089
 -333.412428719981 135240.056409428 564012.425376008
 -285.510892750822 135167.835504422 564029.764044930
 -268.255524555614 135086.256113701 564049.316503581
 -231.539203403174 135049.722424718 564058.081107437
 -216.577717351827 134982.917728470 564074.077595844
 -193.129449601819 134968.859450891 564077.450071833
 -175.183859144806 134909.026107406 564091.769116840
 -166.762615765953 134908.097196817 564091.993828103
 -141.095781444550 134853.335889894 564105.094722028
 -148.857903249117 134857.593105940 564104.074992369
 -112.425988189192 134809.985952753 564115.462514383
 -136.129309061120 134811.802397901 564115.023202751
 -88.4639913795540 134775.838274845 564123.626159582
 -125.625633297476 134767.853356238 564125.526740239
 -69.4116346381549 134748.873660073 564130.070311242
 -114.766623407740 134724.697754479 564135.837049541
 -55.9575638283203 134727.263206928 564135.233270820
 -101.479418838979 134682.638712535 564145.882313571
 -48.7883254775117 134708.909899630 564139.616773501
 -84.4279639895137 134642.981494930 564155.351305005
 -48.1119139828657 134691.349300000 564143.809776363
 -63.2672359837953 134607.658589937 564163.783174879
 -53.2734529698465 134671.935099709 564148.444169120
 -38.8263930628846 134578.766770980 564170.678099202
 -62.5455955482934 134648.233475811 564154.100676307
 -13.1253640991995 134558.027512088 564175.626077360
 -73.1630928062968 134618.527737064 564161.188524226
 10.8436729065154 134546.241511289 564178.437001629
 -81.6356849915369 134582.309263304 564169.828481612
 29.5887854085200 134542.846690324 564179.245921868
 -84.3183240076064 134540.618514835 564179.771757253
 39.7995278917429 134545.699370196 564178.564992488
 -78.1528456132868 134496.113395917 564190.383978250
 39.1263631903863 134551.175524984 564177.259054255
 -61.4364229723583 134452.787083131 564200.712753134
 26.8972670286769 134554.633947772 564176.434956050
 -34.4371770717886 134415.330003205 564209.640004680
 4.59093341215442 134551.204214578 564177.253550097
 0.319240853996535 134388.218030309 564216.099428700
 -24.0912360495362 134536.775535399 564180.693969716
 38.2198726790200 134374.691332789 564219.319829141
 -53.6442403240244 134508.989470925 564187.317186239
 73.2303914234512 134375.843607866 564219.041943804
 -77.6553739171372 134468.002561856 564197.084587174
 98.9822349498172 134390.051213833 564215.654105112
 -90.0430862901314 134416.801285642 564209.283355369
 110.093123733999 134412.926256948 564210.202969202