# OOMMF OVF 2.0
#
# Segment count: 1
#
# Begin: Segment
# Begin: Header
#
# Title: Oxs_TimeDriver::Magnetization
# Desc: Oxs vector field output
# Desc:  MIF source file: C:/Users/Victor H. González/Documents/GitHub/Intro-to-magnetism-in-python/domain_wall_conversion_thin_film/drive-40/domain_wall_conversion_thin_film.mif
# Desc:  Iteration: 998, State id: 7020
# Desc:  Stage: 82, Stage iteration: 11
# Desc:  Stage simulation time: 2e-12 s
# Desc:  Total simulation time: 1.66e-10 s
# meshunit: m
# meshtype: rectangular
# xbase: 1.0000000000000001e-09
# ybase: 1.0000000000000001e-09
# zbase: 1.0000000000000001e-09
# xnodes: 225
# ynodes: 100
# znodes: 1
# xstepsize: 2.0000000000000001e-09
# ystepsize: 2.0000000000000001e-09
# zstepsize: 2.0000000000000001e-09
# xmin: 0
# ymin: 0
# zmin: 0
# xmax: 4.5000000000000003e-07
# ymax: 2.0000000000000002e-07
# zmax: 2.0000000000000001e-09
# valuedim: 3
# valuelabels: Magnetization_x Magnetization_y Magnetization_z
# valueunits: A/m A/m A/m
#
# End: Header
#
# Begin: Data Text
 0.000000000000000 -0.000000000000000 -0.000000000000000
 -0.000000000000000 0.000000000000000 0.000000000000000
 0.000000000000000 0.000000000000000 -0.000000000000000
 0.000000000000000 0.000000000000000 0.000000000000000
 0.000000000000000 0.000000000000000 0.000000000000000
 0.000000000000000 -0.000000000000000 0.000000000000000
 -0.000000000000000 -0.000000000000000 0.000000000000000
 -0.000000000000000 -0.000000000000000 -0.000000000000000
 -0.000000000000000 0.000000000000000 -0.000000000000000
 -0.000000000000000 -0.000000000000000 -0.000000000000000
 0.000000000000000 -0.000000000000000 -0.000000000000000
 0.000000000000000 0.000000000000000 0.000000000000000
 0.000000000000000 0.000000000000000 -0.000000000000000
 0.000000000000000 0.000000000000000 0.000000000000000
 0.000000000000000 0.000000000000000 -0.000000000000000
 -0.000000000000000 0.000000000000000 -0.000000000000000
 0.000000000000000 -0.000000000000000 -0.000000000000000
 -0.000000000000000 -0.000000000000000 0.000000000000000
 0.000000000000000 -0.000000000000000 -0.000000000000000
 -0.000000000000000 -0.000000000000000 -0.000000000000000
 0.000000000000000 -0.000000000000000 0.000000000000000
 0.000000000000000 -0.000000000000000 0.000000000000000
 0.000000000000000 0.000000000000000 -0.000000000000000
 -0.000000000000000 -0.000000000000000 0.000000000000000
 0.000000000000000 -0.000000000000000 0.000000000000000
 250172.883257052 337561.337844645 399832.304441984
 186889.935470803 336433.479358477 433917.810174310
 135785.294097183 330966.409117447 456534.325043413
 96628.0561925488 323336.322824540 471716.695802421
 67610.1105620230 315103.359837021 482222.713659583
 46594.8703033426 307189.065534184 489758.916281929
 31632.6079045735 300053.255931048 495345.759770216
 21128.9409942242 293880.916534736 499587.404514131
 13846.6687083562 288684.812731744 502861.162413363
 8858.47976410122 284404.979632003 505406.108883529
 5486.50651612512 280927.858700000 507394.754064803
 3236.48189009817 278144.448901639 508945.174581878
 1764.77045416031 275930.736070731 510155.970735136
 816.113595933912 274191.696889859 511095.145071109
 229.856853288033 272827.377000330 511825.331070031
 -128.083079655683 271769.019966920 512388.117915457
 -321.456037404360 270946.600024042 512823.397088538
 -427.056890948098 270312.448198956 513157.868468465
 -458.104460035900 269824.201148900 513414.735486490
 -465.772997795193 269445.657106573 513613.493710905
 -438.183332381877 269158.848747086 513763.877804298
 -414.182793694811 268929.965199109 513883.743925238
 -372.363442964030 268762.761203706 513971.243880069
 -342.108351830736 268619.248873271 514046.284002360
 -303.903296520740 268522.259822562 514096.978810974
 -274.765993400935 268426.489083972 514147.006664146
 -246.683220268534 268370.050872691 514176.482291808
 -218.817723795398 268301.095401429 514212.479744704
 -202.686863546867 268267.060059316 514230.243573019
 -174.140294465284 268214.300558339 514257.774516982
 -169.693886684692 268191.045665221 514269.904066901
 -138.830738255744 268150.048357698 514291.291285192
 -144.469130008850 268129.682446638 514301.907948761
 -111.087682466809 268099.433830626 514317.685131694
 -123.982299591669 268076.451906510 514329.661366721
 -89.6955559741503 268057.380238764 514339.608482798
 -105.831936525646 268028.220733133 514354.801367920
 -73.9224140678741 268020.713825078 514358.718693649
 -88.3831952817666 267983.789563043 514377.955126230
 -63.2177360716723 267987.117383392 514376.225072716
 -70.8093856003102 267942.970787925 514399.221802845
 -56.9052349219302 267954.639450014 514393.145326615
 -53.0787104993832 267905.941794726 514418.510100221
 -53.9754607408399 267921.545619633 514410.383331670
 -35.8671402037647 267872.748112460 514435.797288862
 -53.0298722654871 267886.357064172 514428.709236488
 -20.3679837069680 267842.918051683 514451.329898859
 -52.3861374224870 267847.955830274 514448.704744445
 -7.99014361594408 267815.204408516 514465.758067320
 -50.3176826104256 267805.663908575 514470.722049971
 0.0237848015198363 267787.490376865 514480.184261415
 -45.3704824333392 267759.231246474 514494.890182416
 2.98852848289018 267756.886464177 514496.112465467
 -36.6790036650979 267708.699476725 514521.186035261
 1.08321534602155 267720.010343670 514515.302066336
 -24.1934733856714 267654.144608826 514549.568349244
 -4.51066202951985 267673.398489310 514539.553116023
 -8.73755158133389 267595.343198594 514580.151407030
 -11.6897087506405 267613.966009503 514570.466564119
 8.15353708679509 267531.446275119 514613.374473947
 -17.7268655691195 267539.420625361 514609.228538708
 24.6080742059537 267460.768850433 514650.110774668
 -19.7377205431396 267448.547894822 514656.461962126
 38.9319906463652 267380.794452028 514691.664244237
 -15.2244602072364 267341.312141139 514712.174511998
 50.1347389886067 267288.450436516 514739.625198753
 -2.57791513651435 267218.759066673 514775.810228319
 58.3233449998271 267180.645270255 514795.589910556
 18.5904298315126 267082.761075609 514846.383293721
 64.8465029812391 267054.995743929 514860.782195674
 47.3883663491104 266935.704800163 514922.642012548
 72.1264112484091 266910.625638440 514935.639394941
 81.8901500449410 266780.258825100 515003.191053430
 83.1878922801928 266748.892811102 515019.437753397
 119.634722866248 266619.353437909 515086.503472849
 100.970508820263 266573.901574903 515110.031744763
 158.234087521924 266456.444370246 515170.785483358
 127.575333710355 266392.685726352 515203.766209094
 195.904938439545 266296.031412638 515253.709618024
 163.632537362384 266215.003617674 515295.589999793
 231.748231409246 266144.287891898 515332.091291889
 207.959466621336 266052.756300593 515379.362817059
 265.672897738361 266009.562224485 515401.631956137
 257.607754202150 265919.099259972 515448.315825175
 297.976401826179 265902.473116857 515456.871135115
 308.291643475835 265827.347529079 515495.612262526
 328.723528281333 265835.364521876 515491.465409820
 355.085142363477 265789.770174351 515514.958061555
 357.159849413976 265821.025984460 515498.840523829
 393.211875405410 265816.351811550 515501.224532027
 381.413184842105 265870.797678568 515473.154941889
 418.750808720203 265913.596192437 515451.049089791
 398.652632388253 265992.409377129 515410.398837499
 429.136264513040 266083.480614506 515363.364225802
 405.708375966318 266188.065353554 515309.372381336
 423.408727465044 266322.730026447 515239.773499980
 399.967699450326 266453.304774852 515172.278369478
 402.234856788925 266622.622416029 515084.668208169
 380.236502366237 266777.007451891 515004.741449257
 367.739943678363 266969.507876178 514904.987965435
 347.254541367629 267142.618223700 514815.210481266
 323.191526209356 267346.095823062 514709.588598661
 303.682008777604 267530.332797581 514613.863795422
 272.564818004194 267733.366118275 514508.280181571
 253.574954766041 267919.743107167 514411.262467232
 220.030147056606 268112.766832935 514310.699721406
 201.544842026802 268292.361264607 514217.043928669
 169.429192807055 268468.260245488 514125.242070947
 151.879560106553 268633.536476794 514038.909045386
 123.829688497205 268787.817563915 513958.260752209
 107.870614605850 268933.492746726 513882.053435394
 85.2439309496453 269064.126000582 513813.671317741
 71.4794179239415 269187.460623622 513749.069034386
 54.5577395126436 269294.490328417 513692.976886206
 43.3455883175479 269395.076041378 513640.235111912
 31.6584686884304 269480.101355906 513595.632741315
 23.0442084892340 269559.328914053 513554.055250632
 15.6998648798854 269624.947912250 513519.607431722
 9.46065055444296 269685.357966850 513487.884578388
 5.41848731268384 269734.654189461 513461.991095673
 1.16489939791692 269779.330194154 513438.519200339
 -0.575247131769858 269815.456642616 513419.535425372
 -3.29061279354179 269847.550651189 513402.667890152
 -3.57981678200276 269873.436940949 513389.061064671
 -5.17924576329757 269895.855977172 513377.275402335
 -4.67496198366212 269914.037549841 513367.716468116
 -5.50904562568477 269929.275721217 513359.704377223
 -4.67450388459434 269941.825398403 513353.105453476
 -5.00810231534755 269951.906789313 513347.804120884
 -4.13728555216402 269960.440310216 513343.316553744
 -4.15711709754320 269966.934251275 513339.901423693
 -3.41109877111525 269972.661076407 513336.889634563
 -3.24334792615459 269976.737143673 513334.745941415
 -2.68819166659784 269980.532442906 513332.749875379
 -2.41726389431318 269983.031427063 513331.435561481
 -2.05767038897267 269985.511746545 513330.131048940
 -1.74112412922169 269987.017410177 513329.339144886
 -1.54721660920858 269988.609118766 513328.501978723
 -1.22536125653275 269989.512445421 513328.026867794
 -1.15220401262165 269990.507621230 513327.503445026
 -0.853128416130895 269991.060105840 513327.212859592
 -0.853834679748642 269991.658611568 513326.898067347
 -0.595637213250267 269992.014194111 513326.711043807
 -0.629393600322676 269992.353301973 513326.532684671
 -0.421363347031998 269992.600181364 513326.402834618
 -0.457637661674582 269992.774404164 513326.311199156
 -0.301522586266744 269992.958568932 513326.214334613
 -0.321438579342343 269993.032601588 513326.175395815
 -0.213205139570034 269993.174847652 513326.100578998
 -0.208837037660305 269993.192103095 513326.091503186
 -0.140790617269558 269993.299968520 513326.034769414
 -0.113013791901234 269993.288494258 513326.040804520
 -0.0758879084410759 269993.364169979 513326.001001481
 -0.0313957053881706 269993.341005075 513326.013185497
 -0.0160350268727267 269993.386000903 513325.989519104
 0.0358495287657218 269993.360470602 513326.002947241
 0.0374057832206917 269993.377700667 513325.993884767
 0.0875569514878466 269993.353839713 513326.006434874
 0.0816355895384929 269993.347799573 513326.009611799
 0.123277980665264 269993.325995329 513326.021080136
 0.114857914358557 269993.301730594 513326.033842624
 0.145226398556864 269993.279700574 513326.045429711
 0.139369508450896 269993.241279333 513326.065638071
 0.161849085512348 269993.214664072 513326.079636847
 0.167491104124195 269993.164038373 513326.106264351
 0.196493887095132 269993.127518493 513326.125472631
 0.235410223161080 269993.065631653 513326.158023109
 0.308519593793394 269993.017541714 513326.183316831
 0.435364745236353 269992.952889625 513326.217321648
 0.641392579770052 269992.912160941 513326.238743397
 0.986182075876057 269992.891370998 513326.249677685
 1.52455088955144 269992.950704588 513326.218468827
 2.37706446940282 269993.149152998 513326.114088108
 3.67238433465266 269993.624524256 513325.864050087
 5.63516901762441 269994.589925706 513325.356259648
 8.53270913948283 269996.408754917 513324.399562928
 12.7587200314783 269999.672171948 513322.682982406
 18.7899943339724 270005.319513890 513319.712344206
 27.2359777760215 270014.842543954 513314.702754718
 38.7718739614978 270030.544189204 513306.442295072
 54.0771366813756 270055.970882800 513293.064112707
 73.6134610087632 270096.473320302 513271.750324322
 97.2292753488333 270160.062298378 513238.279247957
 123.402262439655 270258.542954899 513186.422980749
 147.899910656588 270409.118242867 513107.091060659
 161.493645809676 270636.491105014 512987.196333561
 146.121569072407 270975.641296118 512808.132221638
 68.6409211807043 271475.302798819 512543.808136156
 -129.229805221830 272202.179796076 512158.136334787
 -546.770113565172 273245.706224729 511601.881419716
 -1348.96504828569 274722.880871767 510808.691213076
 -2804.37981328294 276782.142172037 509689.887312395
 -5342.41618104822 279604.312801527 508126.841302577
 -9638.37419178069 283397.047614132 505957.720710469
 -16737.0945467172 288376.309611300 502950.269630212
 -28226.4282374200 294722.864119854 498740.114803239
 -46464.0349986533 302490.464961081 492687.134050883
 -74823.4395701071 311420.166521514 483548.273468752
 -117791.054282732 320581.807973179 468777.742568491
 -180329.666124564 327783.245303994 443214.796248258
 -0.000000000000000 -0.000000000000000 -0.000000000000000
 -0.000000000000000 -0.000000000000000 -0.000000000000000
 0.000000000000000 0.000000000000000 -0.000000000000000
 0.000000000000000 -0.000000000000000 0.000000000000000
 -0.000000000000000 -0.000000000000000 -0.000000000000000
 -0.000000000000000 -0.000000000000000 -0.000000000000000
 0.000000000000000 0.000000000000000 0.000000000000000
 0.000000000000000 0.000000000000000 -0.000000000000000
 0.000000000000000 0.000000000000000 -0.000000000000000
 0.000000000000000 0.000000000000000 -0.000000000000000
 -0.000000000000000 0.000000000000000 0.000000000000000
 -0.000000000000000 -0.000000000000000 0.000000000000000
 0.000000000000000 -0.000000000000000 -0.000000000000000
 -0.000000000000000 -0.000000000000000 -0.000000000000000
 -0.000000000000000 0.000000000000000 0.000000000000000
 -0.000000000000000 0.000000000000000 0.000000000000000
 -0.000000000000000 -0.000000000000000 -0.000000000000000
 0.000000000000000 0.000000000000000 -0.000000000000000
 0.000000000000000 -0.000000000000000 0.000000000000000
 -0.000000000000000 -0.000000000000000 -0.000000000000000
 -0.000000000000000 0.000000000000000 0.000000000000000
 0.000000000000000 -0.000000000000000 -0.000000000000000
 0.000000000000000 0.000000000000000 -0.000000000000000
 0.000000000000000 -0.000000000000000 0.000000000000000
 -0.000000000000000 0.000000000000000 0.000000000000000
 248154.384470372 272305.585908841 447961.013204245
 182224.106313540 269128.616734996 480379.186406467
 130840.921178826 261301.497241290 501001.178526095
 92274.2203263599 251752.989618208 514301.371261498
 64084.2666298987 242109.234863520 523140.827277234
 43865.2323698067 233185.432205282 529245.118632547
 29580.7859707853 225348.111246417 533613.348651458
 19612.6509913547 218675.186269122 536839.367810573
 12739.0762536345 213139.583131099 539267.312229200
 8056.52078218728 208606.982033223 541126.805397660
 4903.15798324498 204965.961041902 542554.065375941
 2819.57294318830 202048.976023916 543661.899801802
 1454.46165089341 199756.520036123 544513.743852590
 599.624975805535 197943.263611437 545177.131619387
 57.0599277298462 196540.791457538 545684.628734775
 -241.042984722012 195440.611124920 546079.581582572
 -426.249171215565 194597.050910186 546380.642124794
 -486.286217166657 193942.192350929 546613.382155826
 -529.141250332766 193436.056649210 546792.659056009
 -497.379335848713 193054.050209987 546927.679233110
 -491.192100442357 192744.027562232 547037.017549462
 -432.899061571199 192528.037192573 547113.121295019
 -413.287301146563 192327.324964611 547183.725329586
 -357.361117262854 192212.409089066 547224.142454634
 -333.571353381691 192070.072449388 547274.132404811
 -293.345250789388 192016.309457437 547293.021014255
 -263.589015806119 191904.841582562 547332.131614801
 -245.697619000469 191886.201712392 547338.675067888
 -204.931644041938 191793.450016526 547371.199949157
 -212.325068815872 191791.030549210 547372.044882580
 -156.508545427987 191714.764502256 547398.780211392
 -188.796201416315 191713.248458045 547399.300987550
 -117.367262858262 191657.094638169 547418.984233998
 -170.258753948767 191643.554894080 547423.710556563
 -87.4149729922965 191613.533063235 547434.239252210
 -152.319020950253 191577.845152665 547446.715256908
 -67.1666375036638 191579.207853843 547446.255450466
 -131.589331373371 191515.363968931 547468.581790860
 -57.0920385379948 191549.824533285 547456.538422702
 -106.132506369613 191457.424406744 547488.852284160
 -56.9003328668402 191521.114049920 547466.583122139
 -75.7949211027092 191406.325688215 547506.723923704
 -64.9993751759928 191488.913417298 547477.845956660
 -42.3200272555994 191364.314854689 547521.412557729
 -78.2992669253375 191449.635907789 547491.580556267
 -9.12658194204751 191332.599945369 547532.497770544
 -92.4506182247630 191400.884313230 547508.623618840
 19.3039453705616 191310.534305421 547540.207739242
 -102.508174864554 191341.962530402 547529.216450673
 38.3821284154007 191295.141491758 547545.584740175
 -103.901819261608 191274.073316459 547552.936327933
 44.5432791276133 191281.129196848 547550.479525930
 -93.5020785912924 191200.064114413 547578.785874695
 36.3060945565673 191261.453681612 547557.353176326
 -70.5108453084105 191123.694785329 547605.449497926
 14.9796666107608 191228.367988932 547568.909866054
 -36.9112878889247 191048.534634166 547631.679189302
 -15.2063793503746 191174.756981938 547587.629573261
 2.71374128374163 190976.723143507 547656.727531036
 -47.6528276013386 191095.470246733 547615.301996199
 42.0427393418328 190907.912537556 547680.716442492
 -74.5663123249183 190988.337780838 547652.672112150
 74.4226939837926 190838.716009649 547704.828290796
 -88.5389002453803 190854.603705632 547699.290126644
 94.5195921244255 190762.897646320 547731.236965381
 -84.1819868678502 190698.636385964 547753.615226706
 99.8065468372010 190672.374300544 547762.754956236
 -59.4060136613535 190526.952171878 547813.359609840
 91.4836182914003 190558.898176688 547802.243475175
 -15.9806150203836 190346.788481185 547875.989489883
 74.5328514359206 190416.103684435 547851.897781227
 40.8349113742581 190164.624236282 547939.243001980
 56.8110068675798 190241.479852937 547912.562473132
 103.559320072529 189985.110587976 548001.502762850
 47.3301859850627 190037.805550790 547983.238996681
 164.358653060406 189810.801477963 548061.887589829
 54.1141253682937 189813.677999976 548060.913326049
 217.013207235035 189642.861364196 548120.003319409
 82.1741278074734 189582.967183954 548140.759113150
 258.404095242709 189482.621240188 548175.400282858
 132.159241387679 189363.293165519 548216.677724642
 289.043543835077 189333.536626501 548226.894964422
 200.072567588802 189173.869920169 548282.050509038
 312.445525590162 189202.876197361 548271.989086110
 278.141410162826 189033.200009167 548330.531642777
 333.508246993481 189102.434200071 548306.627856947
 356.577077099032 188957.081931105 548356.721524292
 356.436381219782 189047.767129405 548325.464205788
 425.688796383929 188957.213966624 548356.626730288
 382.929001331825 189055.879552750 548322.649333324
 477.735975323612 189040.426426840 548327.902759559
 411.297141267728 189141.807028780 548292.994363916
 508.049989770133 189208.372921462 548269.945831085
 436.846308299788 189314.979885752 548233.205448339
 515.264161265948 189457.462701193 548183.914694394
 453.378560446303 189576.415843696 548142.843612629
 500.815243276312 189778.935189116 548072.718662932
 455.237136484862 189917.588661131 548024.727796376
 468.075969304919 190159.173567314 547940.936245033
 439.128971415572 190321.313323766 547884.663830321
 421.478454762410 190580.480431936 547794.580873383
 405.098956353355 190764.373707821 547730.581233784
 365.836390677166 191022.487596928 547640.644397415
 356.413706333797 191221.138538466 547571.318775302
 305.887895793634 191464.150397028 547486.424987268
 298.544875112334 191667.231313426 547415.366345888
 245.971047475233 191886.004540340 547338.744069693
 237.725609727636 192082.457019334 547269.835814062
 189.747087643439 192272.197568758 547203.221882075
 179.596493844543 192452.530389778 547139.827915745
 139.957993939572 192611.840982100 547083.777062751
 128.299275124172 192769.535465830 547028.234861405
 98.2694765961916 192899.441307775 546982.445683825
 86.1368153858008 193031.344934438 546935.912564947
 65.2589199229415 193134.447736884 546899.516217232
 53.7134691506350 193240.381795488 546862.095924007
 40.5642963712293 193320.175600846 546833.894395909
 30.3639947110348 193402.122039341 546804.917926593
 23.1528691366989 193462.457602777 546783.574151820
 14.6716926709128 193523.658886570 546761.916409597
 11.6342410528808 193568.340453738 546746.099609893
 4.93082804699197 193612.529351049 546730.453197895
 4.54361716804089 193645.034686112 546718.941066404
 -0.519124740180121 193675.885790307 546708.012803059
 0.547761144210217 193699.200851418 546699.752688093
 -3.09968432349945 193720.005003706 546692.381190515
 -1.44065773617805 193736.558297069 546686.515269154
 -3.91633755378709 193750.074444023 546681.725172515
 -2.22893146275452 193761.748685357 546677.587560917
 -3.76108432833288 193770.175472510 546674.600729911
 -2.36591513169107 193778.370396120 546671.695957479
 -3.15856095459624 193783.386855308 546669.917746449
 -2.19293935731482 193789.108048196 546667.889670754
 -2.42807190543800 193791.946709359 546666.883380274
 -1.90255982541710 193795.900020191 546665.481928157
 -1.74388523464147 193797.429400477 546664.939752611
 -1.59131237402650 193800.106773094 546663.990594044
 -1.18501958486607 193800.910574585 546663.705635428
 -1.30009486520161 193802.659496683 546663.085611533
 -0.772209288832347 193803.106709004 546662.927066892
 -1.04131142485911 193804.180817497 546662.546271989
 -0.493427891995602 193804.484894243 546662.438470610
 -0.815019476280089 193805.077099685 546662.228519331
 -0.320788920271889 193805.344349386 546662.133773241
 -0.617405534718829 193805.606080389 546662.040982756
 -0.221571067574359 193805.874177477 546661.945935745
 -0.444641581989054 193805.925170586 546661.927857223
 -0.165311130307338 193806.192822337 546661.832967772
 -0.294282677475709 193806.125614313 546661.856794749
 -0.128037464986040 193806.374318795 546661.768622415
 -0.165452894210996 193806.256654003 546661.810337740
 -0.0941638209130072 193806.465409739 546661.736328211
 -0.0584250162432824 193806.342568854 546661.779878639
 -0.0563938291970776 193806.496440646 546661.725326915
 0.0261140176202356 193806.394351457 546661.761520309
 -0.0141004184807022 193806.487947051 546661.728338128
 0.0878914131755979 193806.417086639 546661.753460065
 0.0291883929359485 193806.454192084 546661.740305183
 0.127809693513774 193806.413818903 546661.754618558
 0.0686344239252400 193806.404560775 546661.757900825
 0.148771956991242 193806.386675203 546661.764241729
 0.101220098356908 193806.343543984 546661.779532922
 0.157426363430484 193806.336099725 546661.782172099
 0.130276929052017 193806.270057218 546661.805585950
 0.169129269543327 193806.259418382 546661.809357693
 0.174699236360378 193806.177529185 546661.838389598
 0.221230258961662 193806.151504825 546661.847615910
 0.290217595668620 193806.059147402 546661.880359029
 0.405248030821832 193806.015624144 546661.895789097
 0.617754724640093 193805.931838934 546661.925492951
 0.938628197446222 193805.907720933 546661.934042955
 1.48714635151917 193805.917295083 546661.930647451
 2.31317450352798 193806.076546198 546661.874185880
 3.62352329625046 193806.479522721 546661.731312774
 5.57667838674238 193807.355886150 546661.420600832
 8.51840533915384 193809.060717667 546660.816147611
 12.8041193721120 193812.177725412 546659.710973278
 18.9931501386017 193817.670675096 546657.763297422
 27.7119799664957 193827.030687981 546654.444239436
 39.7521369400876 193842.637324331 546648.909607360
 55.9131958394003 193868.107428831 546639.875782656
 76.8801578540347 193908.998438012 546625.369347424
 102.822127151285 193973.609829321 546602.440643465
 132.696886237004 194074.296296807 546566.693010502
 162.988867125938 194229.106713374 546511.690213443
 185.488220067981 194464.137821170 546428.096546646
 183.610872001501 194816.516102875 546302.563915442
 126.261171644413 195338.286595978 546116.231078938
 -41.9907159849543 196101.116172105 545842.789155297
 -416.589252475906 197201.762660673 545445.956311822
 -1157.42242900246 198767.821642682 544876.145057520
 -2526.53110430988 200962.773968463 544065.786573168
 -4945.32321575551 203988.425669206 542921.970426037
 -9080.24286632376 208081.224110689 541312.990202605
 -15968.7491910230 213496.208811752 539040.228435952
 -27200.3236518325 220466.772498557 535774.714425107
 -45166.1864345395 229116.268184367 530910.304341731
 -73375.1846716651 239267.474676509 523227.634817126
 -116766.599860838 250018.925056701 510153.014565659
 -181744.039141883 258751.144689684 486227.261019138
 -0.000000000000000 0.000000000000000 -0.000000000000000
 -0.000000000000000 -0.000000000000000 0.000000000000000
 -0.000000000000000 -0.000000000000000 -0.000000000000000
 0.000000000000000 0.000000000000000 0.000000000000000
 0.000000000000000 -0.000000000000000 -0.000000000000000
 -0.000000000000000 0.000000000000000 0.000000000000000
 0.000000000000000 0.000000000000000 -0.000000000000000
 -0.000000000000000 0.000000000000000 0.000000000000000
 0.000000000000000 0.000000000000000 0.000000000000000
 0.000000000000000 -0.000000000000000 -0.000000000000000
 -0.000000000000000 0.000000000000000 0.000000000000000
 -0.000000000000000 0.000000000000000 0.000000000000000
 -0.000000000000000 0.000000000000000 -0.000000000000000
 -0.000000000000000 -0.000000000000000 0.000000000000000
 -0.000000000000000 0.000000000000000 0.000000000000000
 0.000000000000000 0.000000000000000 -0.000000000000000
 -0.000000000000000 0.000000000000000 -0.000000000000000
 -0.000000000000000 0.000000000000000 0.000000000000000
 0.000000000000000 -0.000000000000000 0.000000000000000
 0.000000000000000 0.000000000000000 -0.000000000000000
 -0.000000000000000 -0.000000000000000 0.000000000000000
 -0.000000000000000 0.000000000000000 -0.000000000000000
 -0.000000000000000 -0.000000000000000 -0.000000000000000
 -0.000000000000000 0.000000000000000 -0.000000000000000
 0.000000000000000 -0.000000000000000 0.000000000000000
 244540.520693347 219413.891132720 477972.256639469
 176226.594919920 215848.727708284 508678.202786050
 124477.108207678 207003.730751950 527309.117109715
 86567.8594455528 196447.926594643 538808.145676809
 59384.9066165690 186010.734159772 546144.156467397
 40191.7511197318 176553.699234989 551011.265246338
 26791.8201447163 168367.523222256 554377.647003680
 17538.7938231150 161513.590377990 556781.600660835
 11212.7801290631 155864.095174305 558552.287075501
 6935.32333481144 151308.875277542 559872.776220176
 4087.65978600638 147641.277589613 560879.081611340
 2208.78960312429 144755.308321726 561641.364182848
 1016.02476812582 142458.975310261 562231.632022978
 249.471061446088 140685.775375475 562678.816351914
 -183.715008227432 139282.524042156 563027.836563381
 -460.994346535444 138213.232180381 563291.123607025
 -561.851697822924 137371.900288265 563496.801529397
 -641.114192724893 136729.635341025 563652.903649136
 -607.820210822880 136235.800587378 563772.504821676
 -617.628769309278 135841.686318056 563867.586223016
 -540.124899360082 135562.384213868 563934.879442073
 -530.676518946085 135304.921415126 563996.716855053
 -450.156830743006 135159.556540386 564031.640632539
 -434.757661215862 134972.214532449 564076.512797673
 -371.751336986495 134911.366523095 564091.114079821
 -347.339184306908 134757.697565958 564127.859888353
 -313.806835416402 134748.758135855 564130.014895604
 -271.631909958501 134612.856992752 564162.480982522
 -274.982203803513 134631.032035827 564158.142365912
 -206.813877248546 134511.154395100 564186.765682533
 -250.018901313937 134534.632378376 564181.150147152
 -152.194200664257 134438.266619180 564204.155696637
 -232.405767524421 134446.645110709 564202.131869452
 -108.430742987601 134385.952617816 564216.628593819
 -215.651580706497 134361.129550788 564222.509618530
 -77.2915629546158 134348.305545429 564225.599227016
 -194.168793209654 134276.979602200 564242.549837737
 -60.7210611867327 134319.669275554 564232.419095765
 -164.105474859609 134196.443927133 564261.718980390
 -59.6794984815591 134293.802414054 564238.576376635
 -124.106298323676 134123.775508988 564279.006734117
 -73.1188016886925 134264.002186871 564245.666682878
 -75.8113009459220 134063.767738678 564293.275196822
 -97.3982150597323 134223.909397945 564255.201712416
 -23.8622349240161 134020.178912249 564303.633760161
 -126.357280501499 134168.664444536 564268.334673325
 24.7436964179252 133994.238181284 564309.793927029
 -152.125663602748 134096.032896352 564285.593311794
 61.9604274648987 133983.537323427 564312.331858172
 -166.570637202370 134007.116874875 564306.711710136
 80.4749736065573 133981.619139140 564312.784948767
 -163.099606870908 133906.345545918 564330.633601487
 75.6041747613818 133978.468092840 564313.533748310
 -138.395045645680 133800.599232196 564355.721590484
 46.8458980840739 133961.914622101 564317.466711994
 -93.6092828351962 133697.544262586 564380.153704448
 -1.35858310718398 133919.732005841 564327.480615323
 -34.6178551592531 133603.491978403 564402.432429894
 -59.9514145499329 133841.998860939 564345.918516947
 28.8755030843192 133521.281645888 564421.886990436
 -116.731679613090 133723.181889235 564374.075413758
 85.3073364298773 133448.761273666 564439.031992989
 -158.743354447895 133563.403804109 564411.899205543
 123.921597320337 133378.364532381 564455.663908252
 -175.077975583957 133368.514439491 564457.977801630
 137.526737385459 133298.059534045 564474.630440425
 -159.420725890587 133148.860428826 564509.836540991
 124.638847179409 133193.622737507 564499.285497525
 -111.655903877413 132916.995638882 564564.486842107