# OOMMF OVF 2.0
#
# Segment count: 1
#
# Begin: Segment
# Begin: Header
#
# Title: Oxs_TimeDriver::Magnetization
# Desc: Oxs vector field output
# Desc:  MIF source file: C:/Users/Victor H. González/Documents/GitHub/Intro-to-magnetism-in-python/domain_wall_conversion_thin_film/drive-32/domain_wall_conversion_thin_film.mif
# Desc:  Iteration: 1893, State id: 13534
# Desc:  Stage: 42, Stage iteration: 43
# Desc:  Stage simulation time: 8e-12 s
# Desc:  Total simulation time: 3.44e-10 s
# meshunit: m
# meshtype: rectangular
# xbase: 1.0000000000000001e-09
# ybase: 1.0000000000000001e-09
# zbase: 1.0000000000000001e-09
# xnodes: 225
# ynodes: 25
# znodes: 1
# xstepsize: 2.0000000000000001e-09
# ystepsize: 2.0000000000000001e-09
# zstepsize: 2.0000000000000001e-09
# xmin: 0
# ymin: 0
# zmin: 0
# xmax: 4.5000000000000003e-07
# ymax: 5.0000000000000004e-08
# zmax: 2.0000000000000001e-09
# valuedim: 3
# valuelabels: Magnetization_x Magnetization_y Magnetization_z
# valueunits: A/m A/m A/m
#
# End: Header
#
# Begin: Data Text
 0.000000000000000 -0.000000000000000 -0.000000000000000
 -0.000000000000000 0.000000000000000 0.000000000000000
 0.000000000000000 0.000000000000000 -0.000000000000000
 0.000000000000000 0.000000000000000 0.000000000000000
 0.000000000000000 0.000000000000000 0.000000000000000
 0.000000000000000 -0.000000000000000 0.000000000000000
 -0.000000000000000 -0.000000000000000 0.000000000000000
 -0.000000000000000 -0.000000000000000 -0.000000000000000
 -0.000000000000000 0.000000000000000 -0.000000000000000
 -0.000000000000000 -0.000000000000000 -0.000000000000000
 0.000000000000000 -0.000000000000000 -0.000000000000000
 0.000000000000000 0.000000000000000 0.000000000000000
 0.000000000000000 0.000000000000000 -0.000000000000000
 0.000000000000000 0.000000000000000 0.000000000000000
 0.000000000000000 0.000000000000000 -0.000000000000000
 -0.000000000000000 0.000000000000000 -0.000000000000000
 0.000000000000000 -0.000000000000000 -0.000000000000000
 -0.000000000000000 -0.000000000000000 0.000000000000000
 0.000000000000000 -0.000000000000000 -0.000000000000000
 -0.000000000000000 -0.000000000000000 -0.000000000000000
 0.000000000000000 -0.000000000000000 0.000000000000000
 0.000000000000000 -0.000000000000000 0.000000000000000
 0.000000000000000 0.000000000000000 -0.000000000000000
 -0.000000000000000 -0.000000000000000 0.000000000000000
 0.000000000000000 -0.000000000000000 0.000000000000000
 243762.383223527 280160.455524934 445522.187646415
 176020.511922028 279203.666900468 476929.860432369
 124307.138491410 277649.766185816 493820.152137434
 86657.0228860397 275995.112702771 502709.914512050
 59949.4632158522 274529.753678903 507384.938882830
 41285.8626463182 273346.165752892 509879.741913466
 28355.8769428530 272437.375141844 511247.318690889
 19447.5150629010 271758.347487139 512024.603636326
 13326.9084281326 271258.999063443 512485.071918048
 9132.19718850454 270894.284261437 512769.821390646
 6257.03925622280 270628.874969702 512953.079230820
 4290.50612511952 270435.705392863 513075.160971426
 2941.64774038975 270294.801889021 513158.909871344
 2020.25173380262 270192.035685337 513217.480640659
 1386.12767450345 270116.383409761 513259.406210642
 954.183210924625 270061.227230166 513289.414542456
 654.687718296690 270019.908662193 513311.621054941
 452.296100688148 269990.153935175 513327.490210974
 309.724868124416 269967.059537962 513339.742115232
 215.329738804877 269951.124181061 513348.170529987
 146.511780031915 269937.754402807 513355.225241030
 103.135885502210 269929.526810407 513359.562021493
 69.0510880795372 269921.313925258 513363.886069920
 49.8951632885390 269917.528968724 513365.878361516
 32.1895963674084 269911.963444593 513368.805979984
 24.5910699908679 269910.858376711 513369.387406015
 14.6177011916225 269906.522220952 513371.667555693
 12.5540344734739 269907.135032111 513371.345422740
 6.24371703615080 269903.190978190 513373.419121800
 6.81557540119077 269904.981816953 513372.477587120
 2.26579188621618 269900.891281663 513374.628200722
 4.03645474374875 269903.524200222 513373.243954150
 0.367284835130684 269898.875651186 513375.687895415
 2.56537980757978 269902.072726953 513374.007066110
 -0.639319282807536 269896.452788777 513376.961668155
 1.47433047365211 269899.866104851 513375.167177386
 -1.52273563112284 269892.726238846 513378.920799290
 0.00103086710713825 269895.782881468 513377.313856777
 -3.11531101204402 269886.253198757 513382.323736055
 -2.92281022600984 269887.914379598 513381.450447216
 -6.82343259056553 269874.488301345 513388.508361385
 -9.25550062376447 269872.825790497 513389.382256965
 -15.2915200709582 269852.806075776 513399.905355659
 -22.5704163936806 269844.297705552 513404.377159344
 -33.1407848198781 269812.958720059 513420.847072278
 -48.7712501330181 269791.552861582 513432.094464205
 -67.6573205383665 269741.182473887 513458.557139791
 -96.8269950257992 269697.364042791 513481.569730505
 -129.674832204370 269616.384516741 513524.087443382
 -179.831589227041 269536.282945000 513566.120218996
 -234.529862770142 269408.315080117 513633.239541053
 -315.065587339391 269272.745515265 513704.281913580
 -399.814542214095 269076.058809956 513807.273910786
 -517.636330604290 268861.197330063 513919.632455187
 -633.303993011650 268572.113554600 514070.635950807
 -782.231355562253 268257.213533006 514234.825251668
 -910.191297662447 267863.659919515 514439.725571737
 -1060.11529417003 267450.520141628 514654.345586954
 -1156.54472459993 266975.907471947 514900.502266050
 -1256.63049397710 266512.842578279 515140.102904682
 -1267.20439041210 266034.228951356 515387.410807919
 -1271.61406575204 265621.209071368 515600.384298861
 -1164.92490765867 265255.962128957 515788.636463620
 -1066.63233387664 265010.484867431 515915.017426120
 -860.655508031302 264864.648968273 515990.287698334
 -702.403151401345 264861.274180315 515992.259699109
 -456.904772521513 264972.411975229 515935.472835565
 -305.493735793383 265201.847012113 515817.687768596
 -85.1332118316219 265522.715885373 515652.673900943
 8.21448588048193 265903.364670186 515456.497281386
 167.015712873115 266336.195754022 515232.959870607
 187.236535897967 266762.794016899 515012.210215230
 282.644642799214 267210.489326287 514780.025356474
 244.283581444209 267599.107757998 514578.135808991
 294.658518148158 267997.571842731 514370.697710084
 223.598556947677 268303.646986769 514211.146337071
 250.415252702633 268626.687215458 514042.449811152
 169.678185499083 268839.927080859 513930.992270822
 188.125072803597 269088.159741264 513801.057702315
 112.465099883290 269218.596153867 513732.746509839
 129.787733855937 269405.589605107 513634.706230672
 66.3140706324962 269471.093655933 513600.355613506
 83.9871780313789 269613.407263298 513525.660089181
 34.8819658140418 269632.118328284 513515.841575556
 51.4184313127246 269744.208709129 513456.969203877
 16.4381775296323 269731.272587314 513463.767288613
 29.4500878115961 269823.833994695 513415.131975184
 7.50114931664278 269790.719783120 513432.534480081
 14.8202496767745 269870.799031586 513390.447525481
 4.70516941775335 269825.759655501 513414.120768209
 4.82184929683296 269897.524878139 513376.398017482
 5.47005512266987 269846.369898769 513403.288480446
 -2.40299865023618 269911.964181628 513368.806596039
 8.05228210210592 269858.775780729 513396.767684884
 -7.96986282076084 269919.036526245 513365.088077895
 11.3642126053353 269866.715016996 513392.594411714
 -12.4722186000222 269921.711184053 513363.681687667
 14.7613570919993 269872.348533896 513389.633006844
 -16.1843857486263 269921.754855239 513363.658622164
 17.8736629347154 269876.872390090 513387.254837394
 -19.2083241528135 269920.217749198 513364.466710801
 20.4934174469798 269880.909511195 513385.132489664
 -21.5664122240258 269917.735128936 513365.771938250
 22.5086444989286 269884.751668772 513383.112606994
 -23.2545246449930 269914.706997935 513367.363985524
 23.8665622721698 269888.504928746 513381.139444871
 -24.2697287212846 269911.401090046 513369.102082107
 24.5543973702180 269892.175338036 513379.209832638
 -24.6231824031044 269908.009563148 513370.885196423
 24.5891272320062 269895.718836011 513377.346938261
 -24.3448605095941 269904.678855335 513372.636336731
 24.0113248749842 269899.070274491 513375.585013956
 -23.4838622015071 269901.524602548 513374.294706823
 22.8806365362006 269902.160379877 513373.960479835
 -22.1063219583713 269898.638616846 513375.812036449
 21.2717662862403 269904.925703703 513372.506693133
 -20.2920280036228 269896.091900706 513377.150996185
 19.2705168307772 269907.314364737 513371.250929639
 -18.1304141523761 269893.935905438 513378.284535643
 16.9697609957140 269909.289147815 513370.212754644
 -15.7163540720665 269892.203252605 513379.195504114
 14.4654059328993 269910.828858871 513369.403310588
 -13.1460269941548 269890.908557872 513379.876217395
 11.8525105753938 269911.928453025 513368.825249730
 -10.5130389184997 269890.049632751 513380.327825977
 9.22172464017591 269912.598236888 513368.473153516
 -7.90495685012803 269889.609131082 513380.559449405
 6.65618023046036 269912.862354583 513368.334328532
 -5.40039040730842 269889.556608849 513380.587093352
 4.22893530709175 269912.756740573 513368.389882763
 -3.06671211826976 269889.850917142 513380.432391534
 2.00104341992569 269912.326708862 513368.615993035
 -0.958462953400399 269890.442816547 513380.121231207
 0.0202910138920865 269911.624334676 513368.985281558
 0.883546616705178 269891.277687030 513379.682328471
 -1.67939341551996 269910.705774536 513369.468224856
 2.43246333121753 269892.298208793 513379.145818819
 -3.07788657716241 269909.628658575 513370.034524724
 3.67500016003647 269893.446898810 513378.541923572
 -4.16823097502319 269908.449670898 513370.654380321
 4.61050630788459 269894.668401936 513377.899745355
 -4.95549140980338 269907.222412301 513371.299611811
 5.24959325998279 269895.911455621 513377.246235146
 -5.45520977607463 269905.995617514 513371.944597637
 5.61242237382713 269897.130471968 513376.605360527
 -5.69157248095501 269904.811776875 513372.566999149
 5.72676437750620 269898.286707395 513375.997490745
 -5.69540954674564 269903.706190546 513373.148257844
 5.62593909399466 269899.349017072 513375.439000065
 -5.50214457217864 269902.706464102 513373.673860551
 5.34673265194686 269900.294218815 513374.942076461
 -5.14981428281677 269901.832441089 513374.133374893
 4.92736584979231 269901.107121517 513374.514706661
 -4.67728260402789 269901.096566159 513374.520258366
 4.40554296247497 269901.780311079 513374.160788700
 -4.12280236052928 269900.504689493 513374.831435433
 3.81652488697455 269902.313841372 513373.880294380
 -3.52316136414509 269900.057372887 513375.066610856
 3.19099691647020 269902.715066510 513373.669357461
 -2.91386271230572 269899.751864003 513375.227231758
 2.55213188286026 269902.999004952 513373.520082229
 -2.33129613922920 269899.585108710 513375.314903932
 1.91044017340494 269903.189899792 513373.419723175
 -1.81902597794855 269899.558541366 513375.328873395
 1.25320147701460 269903.325122068 513373.348632826
 -1.44297305837435 269899.686040268 513375.261843890
 0.521263584691467 269903.463393840 513373.275938413
 -1.32623511117372 269900.007526580 513375.092827255
 -0.442963671150123 269903.700681969 513373.151185356
 -1.72765660274951 269900.612441007 513374.774800032
 -2.01248901048942 269904.199270488 513372.889050549
 -3.21811395498225 269901.679985671 513374.213542672
 -5.03845760376836 269905.238653932 513372.342575813
 -7.07503443651630 269903.546668617 513373.232108615
 -11.4386778924191 269907.300934326 513371.258224985
 -16.1637979153239 269906.815986037 513371.513061459
 -25.5129121829065 269911.207610452 513369.203746542
 -36.9039481106508 269912.528793108 513368.508421200
 -56.8765773640734 269918.327313747 513365.457880839
 -83.6491672612442 269922.414161592 513363.305404657
 -126.993162752625 269930.874049173 513358.848280406
 -188.430637246985 269939.241206851 513354.429756445
 -283.697174340124 269952.322588023 513347.507099475
 -422.599720186399 269967.319570932 513339.524849941
 -633.429096737353 269988.044062038 513328.408361678
 -944.819471917429 270013.379325452 513314.603631550
 -1412.64024478685 270046.662187250 513296.020527205
 -2107.23311844266 270088.865092986 513271.433572303
 -3145.50285173169 270144.169916068 513237.014713639
 -4689.46003908985 270217.486779422 513186.631551481
 -6990.51827690873 270317.728964123 513107.647635366
 -10410.8099010418 270459.920320398 512974.703603880
 -15494.7964399854 270668.468455733 512736.278672683
 -23034.8426137988 270984.715608998 512285.740512136
 -34196.3868931851 271471.857191852 511403.595877325
 -50654.4992500327 272224.311188898 509635.208853802
 -74776.2068548041 273362.122175955 506045.125505489
 -109735.681476986 275006.770086207 498727.737966853
 -159347.831135328 277204.295437465 483907.064738144
 -226879.301905595 279859.734449246 454537.469743505
 -0.000000000000000 -0.000000000000000 -0.000000000000000
 -0.000000000000000 -0.000000000000000 -0.000000000000000
 0.000000000000000 0.000000000000000 -0.000000000000000
 0.000000000000000 -0.000000000000000 0.000000000000000
 -0.000000000000000 -0.000000000000000 -0.000000000000000
 -0.000000000000000 -0.000000000000000 -0.000000000000000
 0.000000000000000 0.000000000000000 0.000000000000000
 0.000000000000000 0.000000000000000 -0.000000000000000
 0.000000000000000 0.000000000000000 -0.000000000000000
 0.000000000000000 0.000000000000000 -0.000000000000000
 -0.000000000000000 0.000000000000000 0.000000000000000
 -0.000000000000000 -0.000000000000000 0.000000000000000
 0.000000000000000 -0.000000000000000 -0.000000000000000
 -0.000000000000000 -0.000000000000000 -0.000000000000000
 -0.000000000000000 0.000000000000000 0.000000000000000
 -0.000000000000000 0.000000000000000 0.000000000000000
 -0.000000000000000 -0.000000000000000 -0.000000000000000
 0.000000000000000 0.000000000000000 -0.000000000000000
 0.000000000000000 -0.000000000000000 0.000000000000000
 -0.000000000000000 -0.000000000000000 -0.000000000000000
 -0.000000000000000 0.000000000000000 0.000000000000000
 0.000000000000000 -0.000000000000000 -0.000000000000000
 0.000000000000000 0.000000000000000 -0.000000000000000
 0.000000000000000 -0.000000000000000 0.000000000000000
 -0.000000000000000 0.000000000000000 0.000000000000000
 241737.999672934 212040.821331396 482702.216281670
 172208.533748211 209332.294117291 512761.359253877
 120624.813594302 205978.618369606 528604.259460599
 83643.9897472093 202949.047827537 536856.933423668
 57661.2727432142 200507.288037031 541176.500847614
 39613.0385122611 198647.597154679 543479.474611966
 27166.7685220031 197272.061476093 544743.701614846
 18610.9892741509 196272.833780271 545463.661299357
 12750.0216398114 195552.320974350 545890.764448098
 8731.27819271745 195035.822440623 546154.550238328
 5986.28004575694 194665.404378633 546323.663032562
 4101.02792241025 194399.736244994 546435.654142239
 2817.12871170073 194209.071030303 546511.573999461
 1930.11437251035 194071.039994983 546564.457400749
 1330.18350754588 193972.249801286 546601.314413772
 909.987377679945 193899.114901723 546628.123282457
 630.802948118704 193847.848537688 546646.699162220
 429.159907359820 193807.849247401 546661.077260738
 300.959931360110 193781.732692487 546670.421275761
 201.764666320430 193758.630462636 546678.655530160
 145.022532729171 193746.294750412 546683.045501643
 93.8555342989895 193731.629204751 546688.253977358
 71.1744420904690 193727.253579689 546689.807984994
 42.4780299291001 193716.500679326 546693.621290914
 36.1747603952099 193717.098424698 546693.409937693
 17.9477749834257 193707.752910644 546696.722269473
 19.5833047243576 193711.804872070 546695.286489375
 6.22472743008767 193702.408491795 546698.616154944
 11.6961429299916 193709.159613918 546696.224008242
 0.645942089578388 193698.795706244 546699.896233330
 7.87242110907322 193707.877990429 546696.678188619
 -1.97534172517040 193695.894477460 546700.924142877
 5.84330908492829 193707.106570599 546696.951546194
 -3.21681875265265 193692.943882777 546701.969522405
 4.40174881929841 193706.095483365 546697.309809746
 -3.98655532741084 193689.148002400 546703.314358173
 2.69895631470680 193703.910220752 546698.084099356
 -5.08982290794623 193683.366757166 546705.362526931
 -0.267750603217867 193699.070218854 546699.798972233
 -7.75008086702536 193673.661457159 546708.800731902
 -6.23989063160092 193688.947410940 546703.385403736
 -14.2835624470021 193656.481509256 546714.886357995
 -18.4684114742531 193668.676586973 546710.566358442
 -28.9281716811555 193625.261605472 546725.943440929
 -42.5688335416295 193629.453204361 546724.458058788
 -58.7051945762373 193568.507428653 546746.037466705
 -87.4816370211045 193556.522996104 546750.276408364
 -114.647115035675 193467.773717580 546781.681650731
 -167.199859266613 193427.049685455 546796.075785285
 -214.030804579417 193295.118881949 546842.711579141
 -303.034777414762 193206.669393690 546873.926121662
 -381.319275721389 193008.522868245 546943.840531940
 -520.999583176153 192844.244811584 547001.668921114
 -639.181862443193 192547.955497097 547105.909564532
 -834.105078253209 192272.875045013 547202.381016971
 -981.502581570103 191846.511482930 547351.763205813
 -1208.65317392196 191436.303994290 547494.913830723
 -1339.53123007531 190875.386302727 547690.416713556
 -1540.07403384649 190350.974690773 547872.370727201
 -1578.85661562237 189715.142521399 548092.758490635
 -1680.02408274866 189171.503133357 548280.329686692
 -1560.05930140068 188595.687496883 548479.017714037
 -1524.08767408440 188185.543768839 548619.976188608
 -1237.73817249255 187833.099041534 548741.464542885
 -1098.40299471365 187693.449858716 548789.542895084
 -711.119555035642 187669.059235010 548798.522697378
 -557.427251164263 187839.859859161 548740.263078034
 -166.539223549566 188131.945936444 548640.449823792
 -84.8104517180529 188537.219742033 548501.330517194
 238.627581531516 189038.181063091 548328.833052973
 210.690766665543 189540.275576970 548155.488473487
 447.174101396718 190116.791920939 547955.660126815
 322.933526225727 190588.788598942 547791.757307762
 490.334858689653 191140.657410159 547599.313966461
 308.514954447866 191506.118874227 547471.744706750
 435.305918363785 191984.735980048 547304.002963096
 234.861301916081 192218.603457027 547222.032931058
 342.575050143412 192615.949328164 547082.241264278
 150.952468436419 192726.562454795 547043.370618556
 249.547453695624 193055.860830043 546927.209348045
 81.9161260636195 193066.251297527 546923.592378011
 172.397722211366 193346.806962745 546824.453107518
 35.3704283435013 193282.567205007 546847.188859534
 114.093111244517 193531.603640069 546759.092631540
 9.63415011151943 193415.277870274 546800.265356143
 71.6383667264921 193645.047319132 546718.931917229
 -0.348237600505762 193494.614315641 546772.195919580
 40.5416434631640 193712.331214745 546695.098836384
 0.155929747415675 193541.572558974 546755.575821021
 16.8810896494516 193750.438600609 546681.595864631
 6.89751115335333 193569.869168135 546745.558466327
 -2.08507111418343 193770.290660858 546674.559910061
 16.8496117563812 193588.051477510 546739.120642773
 -17.9939143137192 193778.695421418 546671.580454840
 28.0000614209523 193601.220330821 546734.457211555
 -31.6770959241525 193779.825394393 546671.179290330
 39.0573601587428 193612.274726951 546730.541994481
 -43.4644300444139 193776.236987689 546672.450457982
 49.2028455258787 193622.751095220 546726.831093371
 -53.4161343344312 193769.531200190 546674.826496680
 57.9199773984345 193633.364540583 546723.071382551
 -61.4767521147734 193760.761131514 546677.934131556
 64.8898901134629 193644.347600895 546719.180595968
 -67.5675673518025 193750.672056097 546681.509210284
 69.9321932993327 193655.658390871 546715.173634944
 -71.6372823489254 193739.835947745 546685.349021757
 72.9724175356639 193667.107506432 546711.117634458
 -73.6866180217202 193728.722181222 546689.287230245
 74.0231339261065 193678.435718504 546707.104451926
 -73.7773034417288 193717.731319403 546693.181893987
 73.1709899786912 193689.362313027 546703.233548859
 -72.0317898034098 193707.208688199 546696.910649446
 70.5655947950109 193699.615860901 546699.601093541
 -68.6273689421803 193697.447749216 546700.369513068
 66.4084322880696 193708.954136240 546696.292906184
 -63.7868790427114 193688.689076572 546703.473242152
 60.9412079504389 193717.176889831 546693.379934312
 -57.7674191024039 193681.118201113 546706.156097855
 54.4336459477077 193724.133514702 546690.915537249
 -50.8481083171724 193674.864104339 546708.372378396
 47.1710606925735 193729.726783962 546688.934161926
 -43.3176850339114 193669.999273203 546710.096399450
 39.4421812608995 193733.913408410 546687.451145330
 -35.4625716838416 193666.541672833 546711.321795050
 31.5277386461655 193736.701941777 546686.463456637
 -27.5559256604383 193664.458635647 546712.060139552
 23.6902662508042 193738.148477450 546685.951221815
 -19.8481109035562 193663.672456072 546712.338965273
 16.1654718640027 193738.350578687 546685.879874108
 -12.5589212494828 193664.067365851 546712.199290987
 9.15544515276057 193737.439902646 546686.202767315
 -5.87176786950852 193665.497497210 546711.692800401
 2.82386331767608 193735.573983979 546686.864086859
 0.0700714698140724 193667.795407000 546710.878821876
 -2.70675122284965 193732.927634635 546687.801896829
 5.16515010723374 193670.780734603 546709.821260759
 -7.35577120902214 193729.684392995 546688.951169569
 9.35360476712781 193674.268592418 546708.585626476
 -11.0833451472664 193726.028413528 546690.246659185
 12.6151551760219 193678.077332346 546707.236280721
 -13.8876391056533 193722.137129880 546691.625501036
 14.9656100448990 193682.035391614 546705.834011849
 -15.8007229740070 193718.174955676 546693.029443562
 16.4521851629441 193685.986993572 546704.434014991
 -16.8834265644656 193714.288213200 546694.406645069
 17.1479669072770 193689.796558136 546703.084329342
 -17.2195118163082 193710.601404149 546695.712995018
 17.1458624933337 193693.351757198 546701.824755581
 -16.9095090462463 193707.214863220 546696.912945375
 16.5523660497229 193696.565228821 546700.686248496
 -16.0645519304214 193704.203770086 546697.979860661
 15.4814361309998 193699.375039407 546699.690753221
 -14.8005244824174 193701.618445240 546698.895913134
 14.0487226004067 193701.744056896 546698.851427320
 -13.2328158473622 193699.485828960 546699.651558778
 12.3662888898266 193703.658476437 546698.173163144
 -11.4719894018158 193697.812053082 546700.244626104
 10.5378222591300 193705.125837115 546697.653290539
 -9.62076183351451 193696.586084007 546700.679025407
 8.65404351413921 193706.173011870 546697.282289022
 -7.77296458851422 193695.784580280 546700.963027696
 6.78746403939897 193706.844894616 546697.044252942
 -6.01586520799669 193695.378436482 546701.106946161
 4.98443886924139 193707.204940148 546696.916700132
 -4.43889637140749 193695.342094612 546701.119837108
 3.24983313084160 193707.339491766 546696.869038465
 -3.15567423822304 193695.667795087 546701.004450748
 1.51376886155122 193707.369221313 546696.858512161
 -2.35485998410172 193696.388841256 546700.748988248
 -0.443142847721537 193707.473426923 546696.821591603
 -2.41489436456084 193697.619182072 546700.313075971
 -3.15885494061933 193707.937029278 546696.657317276
 -4.16119737159668 193699.621956397 546699.603472175
 -7.87109217951209 193709.236823835 546696.196719141
 -9.44160778679448 193702.928222710 546698.431961172
 -17.3736228860333 193712.194263928 546695.148589789
 -22.4122178282087 193708.540632906 546696.442995162
 -37.9331491305186 193718.239022658 546693.005654029
 -52.4067275216198 193718.278501749 546692.990468923
 -83.5689740843116 193729.855816713 546688.884084415
 -120.329791271289 193735.359053268 546686.927018786
 -185.586507036196 193751.341661540 546681.244567620
 -272.879110021582 193765.392538984 546676.227936797
 -413.771469529376 193790.133669753 546667.369508580
 -614.125777319218 193818.191894255 546657.233868144
 -923.409189078340 193859.352480938 546642.203613241
 -1375.48828863253 193911.471608001 546622.766824423
 -2059.33454554198 193983.388995117 546595.100540792
 -3070.32767363403 194079.570489851 546556.212485460
 -4585.36181816453 194211.899863965 546498.593235359
 -6833.94976389396 194396.280108856 546409.538176690
 -10187.1221710183 194657.281535099 546264.373071536
 -15165.0921658266 195036.029147835 546013.706159330
 -22560.5142523125 195592.854875274 545558.849546418
 -33511.8687675319 196426.266373338 544695.948700133
 -49692.5642179931 197675.839295889 543005.443453476
 -73472.4871783217 199538.551706611 539616.678773609
 -108133.913713899 202231.506823045 532737.716285411
 -157881.329133566 205870.957940220 518739.466965639
 -227291.775930507 210027.220166532 490537.476023469
 -0.000000000000000 0.000000000000000 -0.000000000000000
 -0.000000000000000 -0.000000000000000 0.000000000000000
 -0.000000000000000 -0.000000000000000 -0.000000000000000
 0.000000000000000 0.000000000000000 0.000000000000000
 0.000000000000000 -0.000000000000000 -0.000000000000000
 -0.000000000000000 0.000000000000000 0.000000000000000
 0.000000000000000 0.000000000000000 -0.000000000000000
 -0.000000000000000 0.000000000000000 0.000000000000000
 0.000000000000000 0.000000000000000 0.000000000000000
 0.000000000000000 -0.000000000000000 -0.000000000000000
 -0.000000000000000 0.000000000000000 0.000000000000000
 -0.000000000000000 0.000000000000000 0.000000000000000
 -0.000000000000000 0.000000000000000 -0.000000000000000
 -0.000000000000000 -0.000000000000000 0.000000000000000
 -0.000000000000000 0.000000000000000 0.000000000000000
 0.000000000000000 0.000000000000000 -0.000000000000000
 -0.000000000000000 0.000000000000000 -0.000000000000000
 -0.000000000000000 0.000000000000000 0.000000000000000
 0.000000000000000 -0.000000000000000 0.000000000000000
 0.000000000000000 0.000000000000000 -0.000000000000000
 -0.000000000000000 -0.000000000000000 0.000000000000000
 -0.000000000000000 0.000000000000000 -0.000000000000000
 -0.000000000000000 -0.000000000000000 -0.000000000000000
 -0.000000000000000 0.000000000000000 -0.000000000000000
 0.000000000000000 -0.000000000000000 0.000000000000000
 238699.524654790 160775.552662658 503561.077323887
 167652.307559137 157708.579217442 532372.715126642
 116134.050199540 153447.271718117 547144.238009062
 79872.3092630734 149435.009790817 554697.748383570
 54736.7206687398 146138.851332094 558611.965090051
 37458.8844447641 143600.791652827 560692.112137165
 25619.5472857549 141717.636616921 561836.052838003
 17531.1090567152 140346.571727303 562490.444380733
 11995.9223750198 139361.842580665 562880.426626202
 8221.16470214332 138657.433703389 563122.125768230
 5630.42881165021 138156.012200816 563277.209342047
 3867.96484539538 137798.838372001 563379.551449360
 2649.62439591355 137543.843776060 563448.906760734
 1826.84839113171 137362.681837351 563496.367568955
 1249.17267191982 137231.346995615 563529.943276668
 866.790540543925 137139.399093772 563553.044433581
 588.853045250742 137069.933838275 563570.303058689
 413.901482115500 137023.921821693 563581.647620082
 276.397396999007 136985.298848906 563591.120852480
 199.779632832596 136963.673568264 563596.408976126
 128.028815931090 136940.128825360 563602.151101214
 98.4240872710358 136932.129674237 563604.100566681
 57.3314624921514 136915.476307604 563608.152052971
 50.4552077400485 136915.733754936 563608.090169596
 23.5309440891152 136901.578576675 563611.530426329
 27.7823127222949 136907.448552647 563610.104379745
 7.33160294309090 136893.319224103 563613.537007457
 17.0616752828326 136903.550455607 563611.051685068
 -0.421875113944212 136887.955143055 563614.839883209
 11.9145727996793 136902.006716359 563611.426796048
 -4.09467833397894 136883.949059453 563615.812830977
 9.23988553027095 136901.623804422 563611.519855953
 -5.81374459612926 136880.336816698 563616.690099883
 7.43434029071067 136901.561977878 563611.534900367
 -6.72742677774195 136876.337997551 563617.661230662
 5.47324887487616 136901.001422629 563611.671081716
 -7.71472069683248 136871.044414938 563618.946755028
 2.30627378231900 136898.819827956 563612.201007389
 -9.96759117795445 136863.046699838 563620.888850551
 -3.77939451200682 136893.113704945 563613.586959968
 -15.7301489571755 136849.778061751 563624.110553311
 -16.0301572223484 136880.281604536 563616.703310767
 -29.2752315264587 136826.269190255 563629.817524266
 -40.2757615262528 136853.433532125 563623.221761073
 -57.9915999041487 136783.287874358 563640.247671557
 -86.1619560829309 136800.404207591 563636.090030400
 -114.024413647923 136705.364632327 563659.143702270
 -169.697708224380 136701.694598734 563660.019778343
 -218.161326740748 136568.152688362 563692.373619622
 -318.518451740586 136526.180047390 563702.493082711
 -405.370076249822 136331.196048766 563749.625861529
 -575.080059441846 136220.005124474 563776.355913241
 -721.331544552195 135923.705531596 563847.697481653
 -981.463338872154 135692.607801431 563902.964097336
 -1191.34158892996 135237.755986664 564011.817306083
 -1531.56169584907 134826.545219975 564109.437097819
 -1760.65707428986 134164.972994058 564266.479695694
 -2111.17257927707 133547.682139920 564411.693310296
 -2252.08750581526 132699.471463393 564611.174504368
 -2492.85081111062 131948.274037758 564786.188458332
 -2414.89237384036 131056.180173129 564994.199911160
 -2444.04488029466 130365.872100937 565153.754332381
 -2081.68572954193 129674.470769087 565314.247313192
 -1902.35090340354 129287.043091785 565403.609423943
 -1319.54783210110 129020.354269575 565466.185529844
 -1057.10561285110 129078.532270703 565453.459653899
 -412.672531579607 129302.972890599 565403.016354737
 -230.893535096547 129759.316674261 565298.563968107
 328.362805118777 130358.632744875 565160.613495629
 331.683281784211 131023.147357420 565006.924597174