# ODT 1.0
# Table Start
# Title: mmArchive Data Table, Fri Apr 16 16:34:36 CEST 2021
# Columns: {Anv_SpinTEvolve:evolver:Total energy} {Anv_SpinTEvolve:evolver:Energy calc count} {Anv_SpinTEvolve:evolver:Max dm/dt} Anv_SpinTEvolve:evolver:dE/dt {Anv_SpinTEvolve:evolver:Delta E} {Anv_SpinTEvolve:evolver:average u} Oxs_UniformExchange:exchange:Energy {Oxs_UniformExchange:exchange:Max Spin Ang} {Oxs_UniformExchange:exchange:Stage Max Spin Ang} {Oxs_UniformExchange:exchange:Run Max Spin Ang} Oxs_DMExchange6Ngbr:dmi:Energy Oxs_UniaxialAnisotropy:uniaxialanisotropy:Energy Oxs_TimeDriver::Iteration {Oxs_TimeDriver::Stage iteration} Oxs_TimeDriver::Stage Oxs_TimeDriver::mx   Oxs_TimeDriver::my   Oxs_TimeDriver::mz   {Oxs_TimeDriver::Last time step} {Oxs_TimeDriver::Simulation time}
# Units:                     J                                        {}                                    deg/ns                             J/s                              J                                 m/s                                  J                                      deg                                            deg                                              deg                                     J                                       J                                    {}                            {}                          {}                   {}                   {}                   {}                          s                                 s                
                    -1.14012951271e-18                        289                                     6423.5018318100001               3.12911429707e-09               1.58566006966e-22                  400                                 1.19059933499e-18                       28.4609129764                                  28.4609129764                                    28.4609129764                          -3.5754843753899997e-18                     1.2447555276900001e-18                  45                            45                          0                     0.0046646257359699997  0.00079492683122500002  0.92345654496899998        5.0805656506899999e-14              7.9999999999999998e-12       
                    -1.11381379192e-18                        566                                     5966.3285562299998               3.49262640369e-09               2.1106656985700001e-22                400                                 1.2434251300499999e-18                     28.012537538                                   28.743678798299999                               28.743678798299999                     -3.6322963956399997e-18                     1.2750574736600001e-18                  89                            43                          1                     0.00427060746888     0.0024780432227900001  0.92563681860000002        6.0997301081799996e-14              1.6e-11                   
                    -1.08202294606e-18                        843                                     5743.5148795799996               4.26203075501e-09               3.8791949531100002e-22                400                                 1.3092343627e-18                        26.1818768515                                  28.012537538                                     28.743678798299999                     -3.6818099584200003e-18                     1.29055264965e-18                    133                           43                          2                     0.0049173814310700002  0.0027397947126000001  0.92879442102099996        9.1875993490900004e-14              2.4000000000000001e-11       
                    -1.04561911106e-18                        1120                                    5795.2682921899996               4.7000966824299998e-09             3.9883273294000001e-22                400                                 1.3787922039199999e-18                     27.158931792400001                             27.158931792400001                               28.743678798299999                     -3.73340255441e-18                       1.3089912394299999e-18                  177                           43                          3                     0.0058016937621299999  0.00365670176312     0.93209527852399998        8.5782078226400006e-14              3.1999999999999999e-11       
                    -1.00478247592e-18                        1397                                    5480.4196705699997               5.3974327738100003e-09             5.6732598401300003e-22                400                                 1.45632305115e-18                       27.3503357821                                  27.351447937900002                               28.743678798299999                     -3.7878560427799997e-18                     1.3267505157000001e-18                  221                           43                          4                     0.00659742216454     0.0046764578494299996  0.934344087735             1.0590917465399999e-13              3.9999999999999998e-11       
                    -9.5900363066500008e-19                      1674                                    5010.49392154                    5.8361108937299998e-09             5.0305038613199998e-22                400                                 1.5397533883899999e-18                     27.269787473600001                             27.352104869800002                               28.743678798299999                     -3.8524762208900001e-18                     1.3537192018299999e-18                  265                           43                          5                     0.0075660795148000002  0.0059298780595800002  0.93433170926099995        8.6866101391300001e-14              4.8000000000000002e-11       
                    -9.1163364077899996e-19                      1945                                    4059.7457319199998               5.8019572127400001e-09             6.3340576414899999e-22                400                                 1.6180745145399999e-18                     27.462269901900001                             27.4775167554                                    28.743678798299999                     -3.9215374405000003e-18                     1.3918292851800001e-18                  309                           43                          6                     0.0081731344137900008  0.0075433935951600001  0.93190118138800004        1.09670046773e-13                5.6e-11                   
                    -8.6706182485399998e-19                      2222                                    4458.1863893700001               5.1236530970899996e-09             4.3390439730100003e-22                400                                 1.68425331454e-18                       27.531269570399999                             27.531269570399999                               28.743678798299999                     -3.9873984806200002e-18                     1.43608334122e-18                    353                           43                          7                     0.00760731718883     0.0089090521313400003  0.92800892986500005        8.5185758541300003e-14              6.3999999999999999e-11       
                    -8.3118243664800004e-19                      2499                                    6408.3428579499996               3.44614095578e-09               2.56819688885e-22                  400                                 1.7487070959000001e-18                     27.207389049900002                             27.545528016999999                               28.743678798299999                     -4.0493886574000001e-18                     1.4694991248499999e-18                  397                           43                          8                     0.00529468024769     0.0082990432743699997  0.92495154132299995        7.5859849737500002e-14              7.1999999999999997e-11       
                    -8.0682062562999996e-19                      2776                                    6909.81903564                    3.01091439495e-09               2.6320009123500001e-22                400                                 1.82980462958e-18                       28.200380367800001                             28.200380367800001                               28.743678798299999                     -4.1083906862399999e-18                     1.4717654310300001e-18                  441                           43                          9                     0.0029781565810100001  0.0043253503664500001  0.92502790837000004        9.0851530923899997e-14              7.9999999999999995e-11       
                    -7.7335525885899998e-19                      3053                                    6563.8244548499997               4.9418292730399999e-09             5.3742689524300004e-22                400                                 1.9114311865700002e-18                     33.581548741200002                             33.581548741200002                               33.581548741200002                     -4.1592360788499997e-18                     1.47444963342e-18                    485                           43                          10                    0.0025658666761599999  0.00180279425628     0.92637450579500003        1.1043417201400001e-13              8.8000000000000006e-11       
                    -7.36336295633e-19                        3330                                    6389.9130303000002               3.1196556937799999e-09             2.58330861923e-22                  400                                 1.97719989189e-18                       30.884588438400002                             33.740161037999997                               33.740161037999997                     -4.2110322557199998e-18                     1.4974960682e-18                     529                           43                          11                    0.0018511681030999999  0.0020630665213500002  0.92612192438899998        8.4718341035399994e-14              9.6000000000000005e-11       
                    -7.36791667772e-19                        3601                                    9019.0798118099992              -3.8080592869300003e-09            -3.3177078546900002e-22                400                                 1.9838410049000001e-18                     25.7497905504                                  30.884588438400002                               33.740161037999997                     -4.2201543498599996e-18                     1.49952167719e-18                    573                           43                          12                    0.0020371735506199999  0.00160582946654     0.926618996922             8.3967194460700002e-14              1.04e-10                  
                    -7.7329685483299999e-19                      3878                                    9453.1752388500008              -5.1440866101199997e-09            -5.2188678416300003e-22                400                                 1.94244577227e-18                       25.439822732300001                             25.7497905504                                    33.740161037999997                     -4.1786200569600003e-18                     1.4628774298600001e-18                  617                           43                          13                    0.00518779419284     0.0014927723319500001  0.93050320409599996        9.7830337572599996e-14              1.12e-10                  
                    -8.1231499036500004e-19                      4137                                    8977.2221999899994              -5.6261173753199998e-09            -4.3400793218000002e-22                400                                 1.8538177347199999e-18                     26.2404921091                                  26.2404921091                                    33.740161037999997                     -4.0788315883199997e-18                     1.41269886323e-18                    661                           43                          14                    0.0051744938790900001  0.0032528858596000002  0.93677161562800004        7.2852610510899994e-14              1.2e-10                   
                    -8.4948269292400003e-19                      4402                                    9035.4878267599997              -4.69834242456e-09              -4.6787951760300003e-22                400                                 1.7543363914099999e-18                     26.6117868314                                  26.662897217899999                               33.740161037999997                     -3.9501226479200002e-18                     1.3463035635900001e-18                  705                           43                          15                    0.00301925696429     0.0036145460550499999  0.94375675101000001        9.2042706310699996e-14              1.28e-10                  
                    -8.7602222212900007e-19                      4667                                    7413.7031951500003              -3.0182876592399999e-09            -3.2057662400499999e-22                400                                 1.6765357097799999e-18                     26.610339509399999                             26.650733620099999                               33.740161037999997                     -3.8336475583400003e-18                     1.28108962644e-18                    749                           43                          16                    0.0025527863122500002  0.0026750864308600002  0.95018120843800002        9.6433429433299996e-14              1.36e-10                  
                    -8.9079608695500007e-19                      4932                                    7285.7026518700004              -1.63923360526e-09              -1.74086704975e-22                  400                                 1.63017715202e-18                       27.408813938400002                             27.408813938400002                               33.740161037999997                     -3.7513710312399999e-18                     1.2303977922599999e-18                  793                           43                          17                    0.0027082188288599998  0.0025722954104299999  0.95492336297699998        9.0539038147200001e-14              1.4399999999999999e-10       
                    -8.9648943690800001e-19                      5197                                    7623.8645275700001              -8.9701558108000002e-10            -1.04866820211e-22                  400                                 1.5993365678099999e-18                     28.137745608500001                             28.393627025800001                               33.740161037999997                     -3.6938880817000003e-18                     1.19806207698e-18                    837                           43                          18                    0.0025183294387400002  0.0026989918812200002  0.95761772554699998        8.6250459926699995e-14              1.5199999999999999e-10       
                    -8.9766702165500008e-19                      5462                                    6347.19227615                   -3.3188023585999999e-10            -5.5949139951699998e-23                400                                 1.5857696743400001e-18                     28.568943666700001                             28.625974419999999                               33.740161037999997                     -3.66804958355e-18                       1.18461288756e-18                    881                           43                          19                    0.00232610501173     0.0025489424365499999  0.95869402691700001        1.00960323886e-13                1.5999999999999999e-10       
                    -8.9716328389000005e-19                      5727                                    6224.5860358199998              -2.5938017169799999e-10            -4.2264565719100001e-23                400                                 1.5855003084299999e-18                     29.262782511600001                             29.277672280699999                               33.740161037999997                     -3.6663546915799998e-18                     1.18369109926e-18                    925                           43                          20                    0.00233225981818     0.0024599836120999998  0.95876479922500002        8.8713263525500002e-14              1.6799999999999999e-10       
                    -8.9613492187399993e-19                      5992                                    6158.7239054900001              -2.1099399163800001e-10            -3.8906887900900003e-23                400                                 1.58799874711e-18                       28.940805817400001                             29.267689527400002                               33.740161037999997                     -3.6720804345800003e-18                     1.1879467656e-18                     969                           43                          21                    0.0023236006406099998  0.0024322192141700001  0.95840631285900002        9.0511030631199999e-14              1.7600000000000001e-10       
                    -8.9477342059300001e-19                      6257                                    6239.9232020299996              -1.99698816869e-10              -3.8320376207600001e-23                400                                 1.5913711428999999e-18                     28.963232093799999                             28.963232093799999                               33.740161037999997                     -3.6786325947e-18                        1.1924880312000001e-18                  1013                          43                          22                    0.0022957061735500001  0.0023840193387200002  0.95803103846299997        8.8712978620600006e-14              1.8400000000000001e-10       
                    -8.9309474979900008e-19                      6522                                    6357.6578915199998              -1.6640271980299999e-10            -3.6321794580600002e-23                400                                 1.59266472378e-18                       29.2509853008                                  29.345062285099999                               33.740161037999997                     -3.6798668097500002e-18                     1.1941073361699999e-18                  1057                          43                          23                    0.0022941727319800002  0.0023446540474799998  0.95787010636699998        8.9953283800599995e-14              1.9200000000000001e-10       
                    -8.9116831351500002e-19                      6787                                    6476.4113221199996              -1.5972084459900001e-10            -3.63537810012e-23                  400                                 1.59158140984e-18                       29.296421761000001                             29.4370349561                                    33.740161037999997                     -3.6754711355600001e-18                     1.19272141221e-18                    1101                          43                          24                    0.0022826373706900001  0.0023259544666500002  0.95795702661000004        8.9368465478499997e-14              2.0000000000000001e-10       
                    -8.8906865303799999e-19                      7052                                    6580.0473636099996              -1.51489908408e-10              -3.6497666614499997e-23                400                                 1.5886847641999999e-18                     29.112102225000001                             29.3284805728                                    33.740161037999997                     -3.6664941153799996e-18                     1.18874069815e-18                    1145                          43                          25                    0.00226027174709     0.00231203017864     0.95824543802600004        8.9827068418799999e-14              2.0800000000000001e-10       
                    -8.86825411093e-19                        7317                                    6640.1558137299999              -1.4442279195199999e-10            -3.6503719787600003e-23                400                                 1.58466741501e-18                       29.8420770731                                  29.8420770731                                    33.740161037999997                     -3.6548144365700002e-18                     1.18332161046e-18                    1189                          43                          26                    0.0022371171097199999  0.0023020624497799998  0.95864520278700005        8.9979333126000006e-14              2.16e-10                  
                    -8.84453120455e-19                        7582                                    6655.1125942500003              -1.5281332402600001e-10            -3.8126556543100002e-23                400                                 1.5802250765599999e-18                     30.372410945599999                             30.372410945599999                               33.740161037999997                     -3.6421045981399998e-18                     1.17742640112e-18                    1233                          43                          27                    0.00221120761674     0.0022967434967000001  0.95907990950699995        8.9398447849300006e-14              2.24e-10                  
                    -8.8196351392300008e-19                      7847                                    6765.9872182999998              -1.6181014607600001e-10            -4.01079049195e-23                  400                                 1.57574651081e-18                       30.6126561538                                  30.6126561538                                    33.740161037999997                     -3.6293465795199996e-18                     1.1716365547799999e-18                  1277                          43                          28                    0.0021854675910899998  0.0022927729177499999  0.95950280928800002        8.9333820218399994e-14              2.32e-10                  
                    -8.7936906299600005e-19                      8112                                    6846.7496506500001              -1.6351076255200001e-10            -4.1359910863899998e-23                400                                 1.5713787161200001e-18                     30.570786797299998                             30.660015055399999                               33.740161037999997                     -3.6170041197400001e-18                     1.16625634063e-18                    1321                          43                          29                    0.00216243409735     0.0022905483198199998  0.959892929733             8.9777055462500001e-14              2.4e-10                   
                    -8.7668544155200003e-19                      8377                                    6889.7789672500003              -1.62932595403e-10              -4.2024465995599998e-23                400                                 1.56711909849e-18                       30.379167410200001                             30.608053377200001                               33.740161037999997                     -3.6051374772099999e-18                     1.1613329371599999e-18                  1365                          43                          30                    0.00214244953748     0.0022908783443099999  0.96024767614899997        9.0054982589900003e-14              2.4800000000000002e-10       
                    -8.7392805565300002e-19                      8642                                    6979.9433171999999              -1.7390339113099999e-10            -4.3765398833199999e-23                400                                 1.56289758403e-18                       31.021202803000001                             31.052050253699999                               33.740161037999997                     -3.5936629568100002e-18                     1.15683731712e-18                    1409                          43                          31                    0.0021259273716799998  0.00229420427714     0.96057070794699995        8.96978773267e-14                2.5599999999999999e-10       
                    -8.7111495147499994e-19                      8907                                    7059.8330287099998              -1.8443487964599999e-10            -4.5710496954700001e-23                400                                 1.55864794432e-18                       31.388078050899999                             31.58548107                                      33.740161037999997                     -3.5825194630600001e-18                     1.1527565672700001e-18                  1453                          43                          32                    0.0021129915518900001  0.0023012713490400002  0.96086439688299996        8.9831094319600003e-14              2.6400000000000002e-10       
                    -8.6826397087099993e-19                      9172                                    7088.4842508000002              -1.8928125674000001e-10            -4.6907100309700001e-23                400                                 1.55433368739e-18                       31.633282661700001                             31.810223905800001                               33.740161037999997                     -3.5717431580200003e-18                     1.1491454997600001e-18                  1497                          43                          33                    0.0021039346722200002  0.00231261841741     0.96112586669400002        9.0193309675600001e-14              2.7199999999999999e-10       
                    -8.65394350424e-19                        9437                                    7074.5228675099997              -1.88762136932e-10              -4.7214660552100002e-23                400                                 1.5499505256900001e-18                     31.546292272399999                             31.8009689513                                    33.740161037999997                     -3.5615035816699996e-18                     1.1461587055599999e-18                  1541                          43                          34                    0.00209959248378     0.0023288892761300002  0.96134519819499997        9.05559584989e-14                2.8000000000000002e-10       
                    -8.62529642096e-19                        9702                                    7088.7842936500001              -1.9950553752600001e-10            -4.8404535293900001e-23                400                                 1.54551167611e-18                       31.303449859600001                             31.546292272399999                               33.740161037999997                     -3.5521089270799998e-18                     1.14406760887e-18                    1585                          43                          35                    0.00210163581158     0.0023509716413999998  0.96150437573699998        9.0319357558600002e-14              2.8799999999999999e-10       
                    -8.5971090089699998e-19                      9967                                    7070.8323048100001              -2.0769348532599999e-10            -4.9426545199100001e-23                400                                 1.54102011404e-18                       31.875684486200001                             31.898139296099998                               33.740161037999997                     -3.5440377364399997e-18                     1.1433067215e-18                     1629                          43                          36                    0.0021134105436799999  0.00238048030477     0.96157428597399996        9.0701000084400005e-14              2.9600000000000001e-10       
                    -8.5701420568499998e-19                      10232                                   6957.8091109799998              -2.1492387793200001e-10            -4.97612230202e-23                  400                                 1.5364392217000001e-18                     31.9067544153                                  31.994799718300001                               33.740161037999997                     -3.5380466577799999e-18                     1.1445932304e-18                     1673                          43                          37                    0.00214180309123     0.0024206211714200001  0.96150621283899995        9.1320613938600001e-14              3.0399999999999998e-10       
                    -8.5461465697099998e-19                      10497                                   6835.5870697999999              -2.6488834541799998e-10            -5.3641654581900001e-23                400                                 1.53161108179e-18                       31.113113134799999                             31.9067544153                                    33.740161037999997                     -3.5354578174499998e-18                     1.14923207869e-18                    1717                          43                          38                    0.0022024884455299999  0.0024775856213500001  0.96120899968399998        9.1096264658100005e-14              3.1200000000000001e-10       