# OOMMF OVF 2.0
#
# Segment count: 1
#
# Begin: Segment
# Begin: Header
#
# Title: Oxs_TimeDriver::Magnetization
# Desc: Oxs vector field output
# Desc:  MIF source file: C:/Users/Victor H. González/Documents/GitHub/Intro-to-magnetism-in-python/domain_wall_conversion_thin_film/drive-32/domain_wall_conversion_thin_film.mif
# Desc:  Iteration: 1013, State id: 7334
# Desc:  Stage: 22, Stage iteration: 43
# Desc:  Stage simulation time: 8e-12 s
# Desc:  Total simulation time: 1.84e-10 s
# meshunit: m
# meshtype: rectangular
# xbase: 1.0000000000000001e-09
# ybase: 1.0000000000000001e-09
# zbase: 1.0000000000000001e-09
# xnodes: 225
# ynodes: 25
# znodes: 1
# xstepsize: 2.0000000000000001e-09
# ystepsize: 2.0000000000000001e-09
# zstepsize: 2.0000000000000001e-09
# xmin: 0
# ymin: 0
# zmin: 0
# xmax: 4.5000000000000003e-07
# ymax: 5.0000000000000004e-08
# zmax: 2.0000000000000001e-09
# valuedim: 3
# valuelabels: Magnetization_x Magnetization_y Magnetization_z
# valueunits: A/m A/m A/m
#
# End: Header
#
# Begin: Data Text
 0.000000000000000 -0.000000000000000 -0.000000000000000
 -0.000000000000000 0.000000000000000 0.000000000000000
 0.000000000000000 0.000000000000000 -0.000000000000000
 0.000000000000000 0.000000000000000 0.000000000000000
 0.000000000000000 0.000000000000000 0.000000000000000
 0.000000000000000 -0.000000000000000 0.000000000000000
 -0.000000000000000 -0.000000000000000 0.000000000000000
 -0.000000000000000 -0.000000000000000 -0.000000000000000
 -0.000000000000000 0.000000000000000 -0.000000000000000
 -0.000000000000000 -0.000000000000000 -0.000000000000000
 0.000000000000000 -0.000000000000000 -0.000000000000000
 0.000000000000000 0.000000000000000 0.000000000000000
 0.000000000000000 0.000000000000000 -0.000000000000000
 0.000000000000000 0.000000000000000 0.000000000000000
 0.000000000000000 0.000000000000000 -0.000000000000000
 -0.000000000000000 0.000000000000000 -0.000000000000000
 0.000000000000000 -0.000000000000000 -0.000000000000000
 -0.000000000000000 -0.000000000000000 0.000000000000000
 0.000000000000000 -0.000000000000000 -0.000000000000000
 -0.000000000000000 -0.000000000000000 -0.000000000000000
 0.000000000000000 -0.000000000000000 0.000000000000000
 0.000000000000000 -0.000000000000000 0.000000000000000
 0.000000000000000 0.000000000000000 -0.000000000000000
 -0.000000000000000 -0.000000000000000 0.000000000000000
 0.000000000000000 -0.000000000000000 0.000000000000000
 243650.207150007 280115.867402462 445611.576807790
 175901.465484354 279149.958101199 477005.215204777
 124187.118392523 277575.961577847 493891.835506009
 86536.1930489748 275888.187144777 502789.414652456
 59826.8776469225 274371.793857130 507484.840607719
 41156.3581861075 273114.926293700 510014.108840573
 28215.1549573879 272102.186926417 511433.578190357
 19285.5983107078 271280.382943864 512284.119925289
 13134.7191464520 270585.647980792 512845.869886615
 8892.35900326991 269958.465314387 513267.330887578
 5952.44362142484 269341.821225613 513633.674668828
 3892.83931661345 268685.108778988 513997.235520268
 2422.69748108312 267936.368430597 514396.960536450
 1338.91485624089 267047.250287775 514863.062785383
 504.184378046720 265964.558475919 515424.678719231
 -176.595973088308 264639.898543391 516106.280636853
 -759.946104784095 263021.943833440 516932.180797439
 -1278.84288879299 261073.509321424 517917.934900368
 -1734.71306711838 258765.372795422 519073.667808936
 -2113.28253228911 256102.893961385 520391.046945989
 -2369.74113247998 253119.582596882 521847.545968116
 -2457.15047700282 249910.355595373 523391.609196907
 -2308.20030283871 246614.812006229 524953.147157434
 -1888.12660573298 243443.270268809 526433.100344905
 -1164.93867370878 240631.179420447 527726.518576251
 -186.773652604100 238441.136298481 528720.899564498
 991.414737574058 237086.174639790 529328.974165867
 2215.93109223104 236719.792337994 529489.215721011
 3383.96113241426 237373.303756878 529190.384899990
 4317.35897776806 238972.442120652 528463.368946561
 4981.25152951616 241341.909317234 527379.626019352
 5270.74315482095 244240.409441046 526040.722437594
 5278.22670376867 247429.935716072 524547.964665200
 4973.37508661470 250660.056481113 523015.106498019
 4528.33216758163 253780.518426244 521512.169249277
 3922.03382970420 256622.534114951 520124.497245668
 3332.37232630121 259168.195109987 518864.859031820
 2703.08944059817 261322.759113903 517786.740730750
 2181.70359292851 263168.988800049 516853.290115669
 1676.65599090448 264641.607637227 516102.711029376
 1303.14495353744 265878.739394564 515467.552568721
 954.974277334527 266809.269660638 514987.282995694
 723.184656228934 267595.837566345 514579.386218609
 506.888273254400 268145.572848561 514293.393721906
 378.326583509632 268630.294779055 514040.486339271
 254.364147652287 268933.090953178 513882.212077096
 189.223072124417 269228.618732229 513727.471574340
 123.601302594815 269380.186627275 513648.031024527
 92.0138582519146 269562.563796474 513552.349554475
 61.3506186986352 269625.711429510 513519.203119252
 44.3176820456622 269742.566935770 513457.832366831
 34.4489181587530 269756.328854354 513450.603131687
 21.2367112588096 269835.875994329 513408.803562401
 24.2562986116863 269823.663320443 513415.221944157
 9.47802529882170 269881.828025502 513384.649957301
 21.1555954622641 269857.360580723 513397.511186845
 2.56275619367775 269902.699655516 513373.677463207
 20.5852327023186 269873.900671795 513388.816894601
 -2.35111246408766 269910.747795504 513369.446129144
 20.5796183569930 269882.147800160 513384.481529440
 -6.33705449104657 269912.534536393 513368.506688892
 20.3961698173572 269886.695079127 513382.091042591
 -9.69620816412339 269911.484874235 513369.058513433
 19.8221293372375 269889.813968924 513380.451442108
 -12.4349054402575 269909.347683402 513370.182108869
 18.8634091754629 269892.550513852 513379.012836813
 -14.4667103069696 269906.994149925 513371.419441779
 17.6195840603364 269895.313256521 513377.560448170
 -15.6923576624021 269904.829420210 513372.557514908
 16.2281394560562 269898.173039908 513376.057024835
 -16.0419553659304 269902.995525778 513373.521667087
 14.8220566103729 269901.017045628 513374.561872754
 -15.5111957889825 269901.479214137 513374.318872130
 13.4891685150861 269903.643733980 513373.180948483
 -14.1888717631681 269900.188166939 513374.997663626
 12.2457289568364 269905.839836387 513372.026382678
 -12.2603534491082 269899.018184870 513375.612814368
 11.0387653597636 269907.445925761 513371.182003800
 -9.97870845343990 269897.906719746 513376.197197265
 9.77842316187064 269908.399022244 513370.680933019
 -7.61167279943704 269896.859229579 513376.747934761
 8.38525952926688 269908.740845703 513370.501241330
 -5.38556203522800 269895.942044989 513377.230152102
 6.83000587738096 269908.592592865 513370.579209493
 -3.44796552211973 269895.249560065 513377.594225753
 5.14886211979577 269908.110602901 513370.832638807
 -1.86020071217311 269894.863765161 513377.797055662
 3.43125129049807 269907.442868213 513371.183718535
 -0.615674521805577 269894.824320416 513377.817795698
 1.79012024538513 269906.701620081 513371.573441074
 0.329741673168092 269895.118769077 513377.662997248
 0.330323695079843 269905.956443078 513371.965222526
 1.03018021471527 269895.691340117 513377.361981398
 -0.872772505690466 269905.242458187 513372.340599711
 1.53360631322600 269896.461445986 513376.957114929
 -1.78051589132398 269904.573890579 513372.692095884
 1.87725664398938 269897.342137004 513376.494109203
 -2.38738901876784 269903.955228750 513373.017353052
 2.08966555981586 269898.252814830 513376.015336844
 -2.71293171813341 269903.387127808 513373.316027992
 2.19373771800719 269899.125629344 513375.556468851
 -2.79403784926509 269902.868437779 513373.588725844
 2.20806204182880 269899.908039567 513375.145128158
 -2.67917681079445 269902.397167187 513373.836493668
 2.14680769411720 269900.564132892 513374.800195859
 -2.42356123650425 269901.972095231 513374.059973069
 2.02000839186472 269901.075619063 513374.531288408
 -2.08381112221555 269901.594805715 513374.258331082
 1.83547376034232 269901.441767893 513374.338790170
 -1.71181654588039 269901.270760914 513374.428695775
 1.60199183635288 269901.677129645 513374.215051786
 -1.34895388468774 269901.008281866 513374.566692403
 1.33226450156712 269901.806705490 513374.146929252
 -1.02242025703445 269900.815500505 513374.668045782
 1.04393100738501 269901.859535597 513374.119154966
 -0.744883090518638 269900.696552092 513374.730582000
 0.757990268069282 269901.862526102 513374.117583237
 -0.517352114042624 269900.648729372 513374.755724507
 0.495239087974193 269901.836261468 513374.131391953
 -0.333963087469957 269900.661843736 513374.748829938
 0.272241401568568 269901.793669939 513374.153784231
 -0.186833840198899 269900.719996250 513374.718257016
 0.0984296982088936 269901.741256780 513374.181340032
 -0.0694680435971703 269900.804945739 513374.673595842
 -0.0247022896843160 269901.681766507 513374.212616500
 0.0219459657463655 269900.899742540 513374.623757512
 -0.102305520281086 269901.616902698 513374.246718025
 0.0890545789498841 269900.991416863 513374.575560756
 -0.143547684515041 269901.549091884 513374.282368898
 0.132795441062181 269901.072089004 513374.533148255
 -0.158730041461931 269901.481939356 513374.317673678
 0.154822665691524 269901.138561159 513374.498201232
 -0.157053047914587 269901.419640517 513374.350426673
 0.158252577630186 269901.190947864 513374.470659479
 -0.145468832916695 269901.365943529 513374.378657326
 0.147563446213492 269901.231058370 513374.449571806
 -0.128565798554635 269901.323255414 513374.401100172
 0.127882361703664 269901.261095965 513374.433779860
 -0.109110161052808 269901.292247613 513374.417402208
 0.104074641633511 269901.282936174 513374.422297603
 -0.0887893086578428 269901.272015277 513374.428039153
 0.0800125985429421 269901.297952774 513374.414402783
 -0.0688126969502047 269901.260617161 513374.434031597
 0.0582281621752242 269901.307184072 513374.409549528
 -0.0502201358247834 269901.255733941 513374.436598902
 0.0399579859278303 269901.311596935 513374.407229512
 -0.0339236472973548 269901.255220302 513374.436868944
 0.0254506797805957 269901.312275546 513374.406872740
 -0.0206107557502513 269901.257435750 513374.435704195
 0.0143533481193316 269901.310474691 513374.407819522
 -0.0106571197703931 269901.261360429 513374.433640836
 0.00601431266256290 269901.307581312 513374.409340686
 -0.00416332661134231 269901.266594430 513374.430889115
 -0.000409756898532666 269901.305095725 513374.410647457
 -0.00119106026460086 269901.273389681 513374.427316583
 -0.00612342658783381 269901.304776965 513374.410815042
 -0.00228317031871831 269901.282887884 513374.422323001
 -0.0132712257651143 269901.309121993 513374.408530689
 -0.00947985715719564 269901.297774390 513374.414496574
 -0.0262767559332322 269901.322413725 513374.401542697
 -0.0284018263993945 269901.323663602 513374.400885586
 -0.0548382796713852 269901.352742643 513374.385597576
 -0.0727933381712638 269901.371780065 513374.375588842
 -0.120696621690280 269901.415764029 513374.352464708
 -0.174731742429244 269901.463986128 513374.327112405
 -0.272985765072370 269901.541607737 513374.286303563
 -0.407724262193921 269901.642062090 513374.233490561
 -0.622965331271841 269901.787463776 513374.157046759
 -0.938857290452144 269901.984549129 513374.053430402
 -1.42230119412213 269902.260131592 513373.908544089
 -2.14613823620757 269902.636643976 513373.710592999
 -3.23890564216391 269903.155468383 513373.437818631
 -4.88174240248192 269903.861777874 513373.066466832
 -7.35089208081157 269904.825303835 513372.559866293
 -11.0611772988622 269906.127553677 513371.875141820
 -16.6273282490124 269907.886664864 513370.950132201
 -24.9792642326068 269910.242921772 513369.710970511
 -37.4937522316413 269913.391853167 513368.054608521
 -56.2445406314246 269917.566146983 513365.858157553
 -84.3114442480505 269923.079157550 513362.955646088
 -126.312360592493 269930.303132511 513359.148643498
 -189.120111225662 269939.724666082 513354.175283287
 -283.008484689380 269951.922764681 513347.717733166
 -423.279938571306 269967.642849130 513339.354276076
 -632.764642303840 269987.792347675 513328.541571707
 -945.462526288195 270013.566665845 513314.503902822
 -1412.02394278023 270046.533569082 513296.089889362
 -2107.81882392580 270088.941992650 513271.390701933
 -3144.95150265834 270144.138785758 513237.034477977
 -4689.97457533019 270217.478792491 513186.631054934
 -6990.04320668053 270317.770025326 513107.632475394
 -10411.2438813876 270459.852507988 512974.730549371
 -15494.4057309667 270668.556826799 512736.243829459
 -23035.1885706817 270984.613002181 512285.779232228
 -34196.0881226434 271471.967246982 511403.557434011
 -50654.7488443483 272224.200758751 509635.243032480
 -74776.0095572809 273362.224766960 506045.099240322
 -109735.824109897 275006.684006801 498727.754048745
 -159347.745840783 277204.355156143 483907.058615524
 -226879.329719541 279859.710149074 454537.470822030
 -0.000000000000000 -0.000000000000000 -0.000000000000000
 -0.000000000000000 -0.000000000000000 -0.000000000000000
 0.000000000000000 0.000000000000000 -0.000000000000000
 0.000000000000000 -0.000000000000000 0.000000000000000
 -0.000000000000000 -0.000000000000000 -0.000000000000000
 -0.000000000000000 -0.000000000000000 -0.000000000000000
 0.000000000000000 0.000000000000000 0.000000000000000
 0.000000000000000 0.000000000000000 -0.000000000000000
 0.000000000000000 0.000000000000000 -0.000000000000000
 0.000000000000000 0.000000000000000 -0.000000000000000
 -0.000000000000000 0.000000000000000 0.000000000000000
 -0.000000000000000 -0.000000000000000 0.000000000000000
 0.000000000000000 -0.000000000000000 -0.000000000000000
 -0.000000000000000 -0.000000000000000 -0.000000000000000
 -0.000000000000000 0.000000000000000 0.000000000000000
 -0.000000000000000 0.000000000000000 0.000000000000000
 -0.000000000000000 -0.000000000000000 -0.000000000000000
 0.000000000000000 0.000000000000000 -0.000000000000000
 0.000000000000000 -0.000000000000000 0.000000000000000
 -0.000000000000000 -0.000000000000000 -0.000000000000000
 -0.000000000000000 0.000000000000000 0.000000000000000
 0.000000000000000 -0.000000000000000 -0.000000000000000
 0.000000000000000 0.000000000000000 -0.000000000000000
 0.000000000000000 -0.000000000000000 0.000000000000000
 -0.000000000000000 0.000000000000000 0.000000000000000
 241626.617271190 211988.310658478 482781.041436225
 172090.839833432 209271.594401750 512825.645440995
 120503.534880340 205899.433703641 528662.767065984
 83520.7901244182 202835.991901410 536918.837447863
 57530.0531116752 200343.523289268 541251.111467691
 39472.1349098249 198407.290440449 543577.499226872
 27003.7262570361 196925.648689399 544877.130788671
 18420.3083082061 195776.470229675 545648.482034212
 12510.5386046742 194853.296334603 546146.206918404
 8429.96160939139 194059.418984583 546506.978592799
 5588.59575332577 193319.406845545 546805.609457687
 3581.40858740830 192558.885483975 547090.713806860
 2122.59271413853 191718.347772577 547393.432302145
 1019.13809248923 190728.443879631 547742.295292962
 130.551469288096 189532.277536132 548158.278901523
 -630.168264012692 188056.688373151 548665.913690729
 -1327.23484236092 186247.166370423 549281.559372478
 -1980.38696691189 184034.783647548 550024.796236734
 -2598.22685827311 181389.368062019 550900.305292396
 -3137.25180506713 178281.305077822 551911.164872446
 -3554.12524586104 174757.540566332 553034.510866134
 -3745.58661039116 170891.653384641 554240.032282411
 -3645.77846146797 166876.139760178 555462.926105921
 -3139.94594315295 162938.472977511 556633.806701705
 -2233.04956916624 159422.365905530 557655.379906537
 -895.700343456724 156642.036742717 558446.479123996
 691.165327137023 154931.670211961 558923.697704635
 2442.97733843011 154468.455279438 559046.982091227
 4034.60583491777 155326.292175858 558800.022292999
 5412.77169897500 157379.702170637 558213.517614198
 6273.50591106210 160382.929193119 557349.046062716
 6764.95313665649 164029.059404672 556281.136728433
 6685.89044512453 167944.409080189 555112.578066523
 6380.89032543361 171903.451988773 553902.958498146
 5678.77147234629 175586.437018050 552754.153932714
 4998.67540017012 178986.038409256 551669.295229310
 4114.42246689201 181858.809995787 550736.275139635
 3428.19964758786 184398.651534679 549895.794455066
 2648.00800365593 186375.584080436 549233.219782170
 2130.04470954714 188118.452643724 548640.967012551
 1553.80924923925 189354.700387722 548217.459698151
 1227.87102888445 190495.241962983 547823.014414511
 845.796433783563 191201.565170096 547577.616511941
 668.188829822474 191936.019224852 547320.854753229
 432.967686540168 192294.824939624 547195.132325226
 347.709979249580 192774.635974608 547026.341982384
 212.417427473018 192918.712732280 546975.616601469
 174.193709642793 193246.275719175 546859.988093131
 104.476061417028 193263.934256476 546853.765462451
 83.1043878555361 193502.870346961 546769.267846271
 57.2268300968120 193449.921924784 546788.006847613
 35.0354609588743 193637.222763691 546721.706842596
 40.2686845691186 193548.016719607 546753.293179236
 8.14744164017253 193703.822235893 546698.115219747
 37.1455435641305 193599.320114393 546735.129538475
 -8.68601628601261 193733.713094864 546687.523485794
 39.5161432920735 193626.771113209 546725.408177402
 -20.6509158133810 193744.151637959 546683.823868630
 43.3993032165961 193642.753130499 546719.747472635
 -29.9055023921516 193744.534118449 546683.687889886
 47.0023412585940 193653.680997368 546715.876508950
 -37.2026964222803 193739.903036255 546685.328674057
 49.5704093022474 193662.686727668 546712.686255035
 -42.7201065289381 193732.959063681 546687.789096687
 50.8307502051963 193671.151036487 546709.687743355
 -46.4449863710950 193725.174399014 546690.547427825
 50.7499761681218 193679.547483264 546706.713248629
 -48.3354960194917 193717.376767814 546693.310368689
 49.4311781657178 193687.887801103 546703.758607627
 -48.3885101672471 193710.035613244 546695.911601018
 47.0561169287130 193695.950793829 546700.902168449
 -46.6781767172016 193703.398694124 546698.263355109
 43.8346377799487 193703.409623047 546698.259718220
 -43.3832895463470 193697.569519790 546700.328955467
 39.9601395197534 193709.921476585 546695.952723927
 -38.7964258457078 193692.569709724 546702.100722213
 35.5846164227234 193715.202892969 546694.081641526
 -33.3040004630878 193688.395082099 546703.580106591
 30.8221162701526 193719.086967377 546692.705635006
 -27.3376260564419 193685.055232864 546704.763681548
 25.7750091274922 193721.549549845 546691.833280557
 -21.3116946628666 193682.585273457 546705.638993784
 20.5655325643126 193722.698333668 546691.426425714
 -15.5689677807773 193681.029503072 546706.190351122
 15.3537817390368 193722.732579085 546691.414461901
 -10.3510489796387 193680.409595932 546706.410088274
 10.3325607081912 193721.891566811 546691.712595878
 -5.79788596937434 193680.695431863 546706.308893006
 5.70258294972007 193720.410606463 546692.237444382
 -1.96802693886918 193681.792404472 546705.920296385
 1.64049249261329 193718.495484292 546692.916091485
 1.13429615570300 193683.548827548 546705.298046654
 -1.72693761396790 193716.315487991 546693.688559485
 3.53680270394564 193685.777521470 546704.508462657
 -4.33483554480640 193714.007738504 546694.506271186
 5.28613402018158 193688.281510903 546703.621331897
 -6.17853460366199 193711.684229493 546695.329552759
 6.44232296672218 193690.875533940 546702.702292016
 -7.30323622876694 193709.436351927 546696.126028786
 7.07617920847575 193693.399907152 546701.807919396
 -7.79088022912250 193707.336235411 546696.870146413
 7.26606384018359 193695.727607454 546700.983220100
 -7.74779281245961 193705.436983763 546697.543092066
 7.09328174860497 193697.767166723 546700.260603844
 -7.29386305603890 193703.773937532 546698.132344676
 6.63741985627920 193699.463293487 546699.659663110
 -6.55251920335920 193702.367492277 546698.630677772
 5.97327684472984 193700.795561674 546699.187637127
 -5.64101168698406 193701.226425088 546699.034981402
 5.16992500689547 193701.774550037 546698.840779307
 -4.66161613918404 193700.350245562 546699.345429474
 4.29106653573360 193702.435068467 546698.606757081
 -3.69519407066795 193699.729840701 546699.565251323
 3.39519873371855 193702.827170901 546698.467836223
 -2.79842632188479 193699.346900527 546699.700935054
 2.53448740285285 193703.006672056 546698.404241115
 -2.00505511152394 193699.173439006 546699.762397081
 1.75227647811191 193703.027176462 546698.396979180
 -1.33023968659648 193699.172711007 546699.762657074
 1.08014865141654 193702.935045123 546698.429624357
 -0.776308430086492 193699.302080263 546699.716821782
 0.535860406393297 193702.767620929 546698.488945877
 -0.338122209528058 193699.517402504 546699.640532096
 0.123171827879746 193702.553972780 546698.564644546
 -0.00686677124591003 193699.777780107 546699.548278520
 -0.166173017821280 193702.316846867 546698.648661334
 0.228014384019153 193700.049413252 546699.452036721
 -0.348858605087441 193702.074567508 546698.734503860
 0.378282075069326 193700.307682989 546699.360529508
 -0.445822336259427 193701.842139655 546698.816855776
 0.456950993434705 193700.537280175 546699.279181126
 -0.478524126684829 193701.631444884 546698.891507346
 0.478211864417066 193700.730809489 546699.210611870
 -0.466341559080010 193701.450895648 546698.955477970
 0.456872727705649 193700.886623727 546699.155405396
 -0.425275402813150 193701.305074810 546699.007143908
 0.407363544441318 193701.006631393 546699.112885525
 -0.367735078942517 193701.194767039 546699.046227160
 0.342604191360142 193701.094570262 546699.081727933
 -0.302965889287784 193701.117522887 546699.073595606
 0.273086075751127 193701.154915025 546699.060347199
 -0.237686883061797 193701.068640312 546699.090915235
 0.206403646035563 193701.192328722 546699.047091166
 -0.176653123411300 193701.042303543 546699.100246644
 0.147288944379619 193701.211443838 546699.040318499
 -0.123037026627457 193701.032610201 546699.103681108
 0.0980412119463372 193701.216764243 546699.038433435
 -0.0786627313478957 193701.034308720 546699.103079314
 0.0591565057265852 193701.212563441 546699.039921829
 -0.0441926791358061 193701.043199125 546699.099929357
 0.0299555929517682 193701.202759574 546699.043395444
 -0.0193656147002530 193701.056268527 546699.095298736
 0.00905452223079702 193701.190831922 546699.047621537
 -0.00335490090556378 193701.071710651 546699.089827435
 -0.00542430940028906 193701.179893654 546699.051497079
 0.00469687122701144 193701.089018520 546699.083695080
 -0.0159965551209379 193701.173066239 546699.053916103
 0.00484889813554152 193701.109370864 546699.076484035
 -0.0265206922924077 193701.174352273 546699.053460448
 -0.00509842672554986 193701.136609159 546699.066833226
 -0.0440018138640871 193701.190338241 546699.047796451
 -0.0325628617180571 193701.179299705 546699.051707521
 -0.0828176980896764 193701.233364060 546699.032551948
 -0.0966860251713056 193701.254798614 546699.024957457
 -0.174440258261480 193701.327397119 546698.999235012
 -0.243044503759029 193701.397042780 546698.974558775
 -0.389619775250694 193701.518939196 546698.931369448
 -0.577045380831067 193701.671225017 546698.877412696
 -0.888705550487424 193701.897191239 546698.797349806
 -1.33950889217925 193702.200979692 546698.689712925
 -2.03526452783737 193702.630911646 546698.537380304
 -3.07708086398248 193703.217839505 546698.329418660
 -4.65172240400218 193704.034706141 546698.039979039
 -7.02519506131923 193705.149469405 546697.644973601
 -10.5929326555486 193706.686022876 546697.100484194
 -15.9663432610633 193708.773925057 546696.360559979
 -24.0299568522049 193711.627618799 546695.349118535
 -36.1490708039058 193715.484180831 546693.981933066
 -54.3173020627094 193720.711923925 546692.128003796
 -81.5697445891141 193727.735433463 546689.635780851
 -122.384192185093 193737.182039957 546686.280527806
 -183.508072163897 193749.802396277 546681.790803563
 -274.954701580754 193766.667015103 546675.775166387
 -411.723187177487 193789.106752236 546667.735089778
 -616.126293204596 193818.992012222 546656.947933305
 -921.474679291332 193858.759900923 546642.417027888
 -1377.34215458068 193911.878019775 546622.617983773
 -2057.57417323089 193983.148677401 546595.192457565
 -3071.98472185379 194079.665822701 546556.169322072
 -4583.81679445448 194211.929413257 546498.595695520
 -6835.37629538368 194396.146158167 546409.567988842
 -10185.8203631226 194657.499897145 546264.319535262
 -15166.2642558199 195035.746628595 546013.774519974
 -22559.4777256652 195593.180859348 545558.775537584
 -33512.7640674116 196425.918444540 544696.019085674
 -49691.8175827577 197676.185828689 543005.385628488
 -73473.0775496836 199538.231645551 539616.716741749
 -108133.488299843 202231.772757021 532737.701684103
 -157881.583490530 205870.774359169 518739.462407940
 -227291.694381491 210027.294370824 490537.482038286
 -0.000000000000000 0.000000000000000 -0.000000000000000
 -0.000000000000000 -0.000000000000000 0.000000000000000
 -0.000000000000000 -0.000000000000000 -0.000000000000000
 0.000000000000000 0.000000000000000 0.000000000000000
 0.000000000000000 -0.000000000000000 -0.000000000000000
 -0.000000000000000 0.000000000000000 0.000000000000000
 0.000000000000000 0.000000000000000 -0.000000000000000
 -0.000000000000000 0.000000000000000 0.000000000000000
 0.000000000000000 0.000000000000000 0.000000000000000
 0.000000000000000 -0.000000000000000 -0.000000000000000
 -0.000000000000000 0.000000000000000 0.000000000000000
 -0.000000000000000 0.000000000000000 0.000000000000000
 -0.000000000000000 0.000000000000000 -0.000000000000000
 -0.000000000000000 -0.000000000000000 0.000000000000000
 -0.000000000000000 0.000000000000000 0.000000000000000
 0.000000000000000 0.000000000000000 -0.000000000000000
 -0.000000000000000 0.000000000000000 -0.000000000000000
 -0.000000000000000 0.000000000000000 0.000000000000000
 0.000000000000000 -0.000000000000000 0.000000000000000
 0.000000000000000 0.000000000000000 -0.000000000000000
 -0.000000000000000 -0.000000000000000 0.000000000000000
 -0.000000000000000 0.000000000000000 -0.000000000000000
 -0.000000000000000 -0.000000000000000 -0.000000000000000
 -0.000000000000000 0.000000000000000 -0.000000000000000
 0.000000000000000 -0.000000000000000 0.000000000000000
 238588.623711188 160721.320003814 503630.942190641
 167533.330877717 157647.496385357 532428.258010830
 116010.726933451 153367.203182038 547192.847380602
 79738.8763637325 149323.789358284 554746.895014233
 54592.5935550711 145975.410817639 558668.800064539
 37289.6824638372 143363.861043035 560764.017148551
 25421.1259530565 141371.598578110 561932.235657244
 17278.4531671023 139852.152435916 562621.391803754
 11677.0041368327 138657.854375626 563060.962058583
 7794.31934976679 137671.420826716 563370.063522572
 5068.32991613871 136782.245754675 563617.715546778
 3103.48096643525 135907.328871746 563843.565508056
 1631.24167810471 134954.546066263 564078.549092798
 453.460570789191 133852.307219628 564343.294658041
 -559.271484394638 132504.581317955 564661.157815163
 -1509.71905393709 130835.861063998 565048.403420468
 -2447.77896349413 128737.014804310 565527.001475103
 -3412.17259753618 126133.414611928 566108.398450774
 -4376.33591687628 122921.673019394 566807.824563190
 -5305.58676491033 119072.741719240 567620.941235032
 -6072.97872109515 114559.275734266 568541.371645629
 -6563.92593754957 109501.578356617 569531.666559197
 -6563.18627383057 104070.032285459 570549.167877790
 -5959.89289416516 98650.7322931449 571517.727366979
 -4583.95757192380 93668.8809223227 572368.000572829
 -2543.40075239237 89708.5437525704 573014.753990162
 105.329184861256 87218.8859393467 573404.617038668
 2908.37936246647 86585.0488665801 573493.304792877
 5670.51834741391 87852.5330446022 573279.842362627
 7816.60965575840 90857.8825545346 572785.951111928
 9384.34285068719 95183.1736658448 572059.522742309
 9972.76586645952 100285.303123389 571177.207106886
 10023.1084214278 105710.163035595 570197.245458587
 9276.59533783656 110929.588414357 569217.507806251
 8400.01825540307 115814.889168300 568257.293081438
 7080.50054580618 119983.563708305 567409.738153899
 5998.92625029637 123665.859608114 566631.068730996
 4711.62229581372 126524.294155298 566011.840515589
 3832.24612509250 129035.930652593 565451.184887127
 2835.26303070531 130793.604022813 565053.089921886
 2260.33802494337 132424.831181617 564675.619235090
 1578.64037223079 133402.693459925 564447.720583769
 1257.97325989743 134452.537027495 564199.373262810
 825.795988743501 134926.695396015 564086.965751289
 670.597284197404 135620.861280858 563920.679071729
 411.769375158970 135787.644690846 563880.790589017
 345.052725906620 136274.253103227 563763.433436201
 201.226490621942 136261.272337113 563766.640702490
 169.995792751381 136629.643783164 563677.488943027
 103.492915745014 136516.262879796 563704.975371472
 75.7845975148308 136816.783129000 563632.115932837
 64.2990436667623 136651.561637432 563672.197795566
 22.8787142176970 136910.678495127 563609.319999739
 53.5145305989174 136723.458083254 563654.764147303
 -9.53243617744329 136953.646150644 563598.881045001
 55.3203059595596 136763.136485269 563645.137864575
 -31.6423129514574 136969.117639313 563595.120464924
 61.7702444397395 136787.381703928 563639.253770549
 -48.0535918191961 136969.885460041 563594.932702482
 69.0078723699915 136804.884143590 563635.005045262
 -60.6353291761588 136962.883848309 563596.633037594
 75.2081212129436 136819.875160495 563631.365437380
 -70.0395225524775 136951.900153611 563599.301045327
 79.5346580071469 136834.191201447 563627.889473617
 -76.4505456348344 136939.074593623 563602.416606561
 81.6512253690476 136848.423913757 563624.433648327
 -79.9256012783459 136925.696509279 563605.666443611