# ODT 1.0
# Table Start
# Title: mmArchive Data Table, Tue Apr 13 14:42:20 CEST 2021
# Columns: {Oxs_CGEvolve:evolver:Max mxHxm} {Oxs_CGEvolve:evolver:Total energy} {Oxs_CGEvolve:evolver:Delta E} {Oxs_CGEvolve:evolver:Bracket count} {Oxs_CGEvolve:evolver:Line min count} {Oxs_CGEvolve:evolver:Conjugate cycle count} {Oxs_CGEvolve:evolver:Cycle count} {Oxs_CGEvolve:evolver:Cycle sub count} {Oxs_CGEvolve:evolver:Energy calc count} Oxs_UniformExchange:exchange:Energy {Oxs_UniformExchange:exchange:Max Spin Ang} {Oxs_UniformExchange:exchange:Stage Max Spin Ang} {Oxs_UniformExchange:exchange:Run Max Spin Ang} Oxs_DMExchange6Ngbr:dmi:Energy Oxs_UniaxialAnisotropy:uniaxialanisotropy:Energy Oxs_MinDriver::Iteration {Oxs_MinDriver::Stage iteration} Oxs_MinDriver::Stage Oxs_MinDriver::mx    Oxs_MinDriver::my    Oxs_MinDriver::mz   
# Units:                 A/m                                 J                                J                                 {}                                   {}                                        {}                                      {}                                   {}                                      {}                                     J                                      deg                                            deg                                              deg                                     J                                       J                                    {}                           {}                         {}                 {}                   {}                   {}           
                  0.089803837704099998              -3.1449452238699998e-19              -4.8148248609700001e-35               661                                  630                                       10                                      647                                  636                                     1292                                  7.7976190937699999e-19                     23.930972799300001                             180                                              180                                    -1.7895235879499999e-18                     6.9526715618799995e-19                  1282                         1282                       0                    0.0010624384703700001 -3.2767392337e-15     0.77933822786200002
# Table End
