# OOMMF OVF 2.0
#
# Segment count: 1
#
# Begin: Segment
# Begin: Header
#
# Title: Oxs_MinDriver::Magnetization
# Desc: Oxs vector field output
# Desc:  MIF source file: C:/Users/Victor H. González/Documents/GitHub/Intro-to-magnetism-in-python/disk_with_vortex/drive-4/disk_with_vortex.mif
# Desc:  Iteration: 62, State id: 147
# Desc:  Stage: 0, Stage iteration: 62
# Desc:  Stage simulation time: -1 s
# Desc:  Total simulation time: -2 s
# meshunit: m
# meshtype: rectangular
# xbase: -4.7499999999999995e-08
# ybase: -4.7499999999999995e-08
# zbase: 0
# xnodes: 20
# ynodes: 20
# znodes: 1
# xstepsize: 5.0000000000000001e-09
# ystepsize: 5.0000000000000001e-09
# zstepsize: 5.0000000000000001e-09
# xmin: -4.9999999999999998e-08
# ymin: -4.9999999999999998e-08
# zmin: -2.5000000000000001e-09
# xmax: 4.9999999999999998e-08
# ymax: 4.9999999999999998e-08
# zmax: 2.5000000000000001e-09
# valuedim: 3
# valuelabels: Magnetization_x Magnetization_y Magnetization_z
# valueunits: A/m A/m A/m
#
# End: Header
#
# Begin: Data Text
 0.000000000000000 -0.000000000000000 -0.000000000000000
 -0.000000000000000 0.000000000000000 0.000000000000000
 0.000000000000000 0.000000000000000 -0.000000000000000
 0.000000000000000 0.000000000000000 0.000000000000000
 0.000000000000000 0.000000000000000 0.000000000000000
 0.000000000000000 -0.000000000000000 0.000000000000000
 -0.000000000000000 -0.000000000000000 0.000000000000000
 782608.779968252 -165895.955159520 -1424.63269447524
 792822.177472667 -106916.546674691 -1359.02709937213
 799171.495501622 -36374.9943247242 -1334.37834872999
 799171.495501622 36374.9943247243 -1334.37834872999
 792822.177472667 106916.546674691 -1359.02709937213
 782608.779968252 165895.955159520 -1424.63269447524
 -0.000000000000000 -0.000000000000000 -0.000000000000000
 -0.000000000000000 0.000000000000000 -0.000000000000000
 -0.000000000000000 -0.000000000000000 -0.000000000000000
 0.000000000000000 -0.000000000000000 -0.000000000000000
 0.000000000000000 0.000000000000000 0.000000000000000
 0.000000000000000 0.000000000000000 -0.000000000000000
 0.000000000000000 0.000000000000000 0.000000000000000
 0.000000000000000 0.000000000000000 -0.000000000000000
 -0.000000000000000 0.000000000000000 -0.000000000000000
 0.000000000000000 -0.000000000000000 -0.000000000000000
 -0.000000000000000 -0.000000000000000 0.000000000000000
 0.000000000000000 -0.000000000000000 -0.000000000000000
 718436.510884876 -351918.687451818 -1489.04323461798
 743583.451685930 -295095.843677193 -1446.86671233024
 770460.802924464 -215378.882741220 -1445.00039266440
 789306.772032980 -130356.326892965 -1430.96535677941
 798807.747961083 -43636.7596509315 -1419.50854534301
 798807.747961083 43636.7596509316 -1419.50854534301
 789306.772032980 130356.326892965 -1430.96535677941
 770460.802924464 215378.882741220 -1445.00039266440
 743583.451685930 295095.843677193 -1446.86671233024
 718436.510884876 351918.687451818 -1489.04323461798
 -0.000000000000000 -0.000000000000000 -0.000000000000000
 0.000000000000000 -0.000000000000000 0.000000000000000
 0.000000000000000 -0.000000000000000 0.000000000000000
 0.000000000000000 0.000000000000000 -0.000000000000000
 -0.000000000000000 -0.000000000000000 0.000000000000000
 0.000000000000000 -0.000000000000000 0.000000000000000
 -0.000000000000000 -0.000000000000000 -0.000000000000000
 -0.000000000000000 -0.000000000000000 -0.000000000000000
 610430.748089170 -517080.414951193 -1465.01235428001
 650434.045916618 -465761.127779394 -1457.31335179206
 691297.286399191 -402623.642252307 -1504.83108747731
 728034.548183167 -331607.153982756 -1546.63479477433
 760603.694887052 -247950.791909496 -1556.95716634324
 785201.125632758 -153156.396814177 -1520.00656181872
 798322.590173688 -51757.7896555804 -1474.18735010736
 798322.590173688 51757.7896555804 -1474.18735010736
 785201.125632758 153156.396814177 -1520.00656181872
 760603.694887052 247950.791909496 -1556.95716634324
 728034.548183167 331607.153982756 -1546.63479477433
 691297.286399191 402623.642252307 -1504.83108747731
 650434.045916618 465761.127779394 -1457.31335179206
 610430.748089170 517080.414951193 -1465.01235428001
 0.000000000000000 0.000000000000000 -0.000000000000000
 0.000000000000000 -0.000000000000000 0.000000000000000
 -0.000000000000000 -0.000000000000000 -0.000000000000000
 -0.000000000000000 -0.000000000000000 -0.000000000000000
 0.000000000000000 0.000000000000000 0.000000000000000
 517080.414951194 -610430.748089169 -1465.01235428005
 565684.482377437 -565684.482377437 -1460.40910114343
 614015.370953362 -512818.436478766 -1541.24640459538
 661129.310402529 -450450.184163392 -1632.94636865953
 706338.867425547 -375609.789455295 -1640.25282936422
 747474.028347143 -285097.103125987 -1489.54209879221
 779732.471175546 -178929.699335225 -1198.36984386868
 797663.040572860 -61096.5654820987 -939.888478563959
 797663.040572860 61096.5654820988 -939.888478563967
 779732.471175546 178929.699335225 -1198.36984386867
 747474.028347143 285097.103125988 -1489.54209879221
 706338.867425547 375609.789455295 -1640.25282936421
 661129.310402529 450450.184163392 -1632.94636865953
 614015.370953362 512818.436478766 -1541.24640459538
 565684.482377437 565684.482377437 -1460.40910114343
 517080.414951194 610430.748089169 -1465.01235428005
 0.000000000000000 0.000000000000000 -0.000000000000000
 0.000000000000000 0.000000000000000 -0.000000000000000
 0.000000000000000 0.000000000000000 -0.000000000000000
 -0.000000000000000 0.000000000000000 0.000000000000000
 465761.127779395 -650434.045916618 -1457.31335179209
 512818.436478766 -614015.370953362 -1541.24640459540
 565684.197858342 -565684.197858341 -1666.30931384952
 620420.990688226 -505049.493067337 -1674.47480329077
 675637.607671388 -428382.996176868 -1353.39817275998
 728171.991034426 -331308.431293363 -524.239344283758
 771464.377417884 -211759.740711123 725.664657121578
 796642.188350276 -73198.6618718252 1783.15469246884
 796642.188350276 73198.6618718252 1783.15469246885
 771464.377417884 211759.740711123 725.664657121573
 728171.991034426 331308.431293363 -524.239344283751
 675637.607671387 428382.996176868 -1353.39817275998
 620420.990688226 505049.493067337 -1674.47480329076
 565684.197858341 565684.197858342 -1666.30931384952
 512818.436478766 614015.370953362 -1541.24640459540
 465761.127779395 650434.045916618 -1457.31335179209
 -0.000000000000000 -0.000000000000000 0.000000000000000
 0.000000000000000 -0.000000000000000 -0.000000000000000
 -0.000000000000000 -0.000000000000000 -0.000000000000000
 351918.687451818 -718436.510884876 -1489.04323461812
 402623.642252307 -691297.286399191 -1504.83108747734
 450450.184163393 -661129.310402529 -1632.94636865952
 505049.493067337 -620420.990688225 -1674.47480329077
 565684.705875752 -565684.705875752 -1275.56909944895
 631268.523634391 -491426.536442565 101.727682463309
 698244.379173456 -390443.062780045 3000.27992231187
 757753.304147750 -256431.101725095 7281.49168928445
 794797.418858600 -90417.2645104428 11035.4544154738
 794797.418858600 90417.2645104428 11035.4544154738
 757753.304147750 256431.101725095 7281.49168928444
 698244.379173456 390443.062780045 3000.27992231187
 631268.523634391 491426.536442565 101.727682463315
 565684.705875752 565684.705875752 -1275.56909944895
 505049.493067337 620420.990688225 -1674.47480329077
 450450.184163392 661129.310402529 -1632.94636865953
 402623.642252307 691297.286399191 -1504.83108747735
 351918.687451818 718436.510884876 -1489.04323461812
 -0.000000000000000 0.000000000000000 0.000000000000000
 -0.000000000000000 0.000000000000000 0.000000000000000
 295095.843677193 -743583.451685930 -1446.86671233034
 331607.153982757 -728034.548183167 -1546.63479477434
 375609.789455296 -706338.867425547 -1640.25282936420
 428382.996176868 -675637.607671387 -1353.39817275999
 491426.536442565 -631268.523634390 101.727682463281
 565677.932664925 -565677.932664925 4117.40110664372
 649357.019120341 -467097.583759197 12462.3017723194
 732576.504491065 -320437.391447884 25525.3448503265
 790443.114405306 -117269.021026887 38048.1221170786
 790443.114405306 117269.021026887 38048.1221170786
 732576.504491065 320437.391447884 25525.3448503265
 649357.019120341 467097.583759198 12462.3017723194
 565677.932664925 565677.932664925 4117.40110664371
 491426.536442565 631268.523634391 101.727682463285
 428382.996176868 675637.607671387 -1353.39817275999
 375609.789455296 706338.867425547 -1640.25282936419
 331607.153982757 728034.548183167 -1546.63479477435
 295095.843677193 743583.451685930 -1446.86671233034
 -0.000000000000000 -0.000000000000000 -0.000000000000000
 165895.955159521 -782608.779968252 -1424.63269447532
 215378.882741221 -770460.802924464 -1445.00039266443
 247950.791909497 -760603.694887052 -1556.95716634324
 285097.103125988 -747474.028347143 -1489.54209879221
 331308.431293363 -728171.991034426 -524.239344283772
 390443.062780045 -698244.379173456 3000.27992231185
 467097.583759197 -649357.019120342 12462.3017723194
 565194.949094141 -565194.949094141 33306.7416140202
 679920.136533844 -415742.072258445 69764.8714615937
 775281.153533751 -163701.837321456 110185.486489628
 775281.153533751 163701.837321456 110185.486489628
 679920.136533844 415742.072258445 69764.8714615937
 565194.949094141 565194.949094141 33306.7416140202
 467097.583759197 649357.019120342 12462.3017723194
 390443.062780045 698244.379173456 3000.27992231184
 331308.431293364 728171.991034426 -524.239344283770
 285097.103125988 747474.028347143 -1489.54209879221
 247950.791909497 760603.694887052 -1556.95716634324
 215378.882741221 770460.802924464 -1445.00039266444
 165895.955159521 782608.779968252 -1424.63269447531
 106916.546674691 -792822.177472667 -1359.02709937217
 130356.326892966 -789306.772032980 -1430.96535677941
 153156.396814178 -785201.125632758 -1520.00656181870
 178929.699335227 -779732.471175545 -1198.36984386864
 211759.740711122 -771464.377417884 725.664657121606
 256431.101725095 -757753.304147750 7281.49168928446
 320437.391447884 -732576.504491065 25525.3448503265
 415742.072258445 -679920.136533844 69764.8714615937
 554229.538772090 -554229.538772091 160185.007740897
 704859.191113031 -249920.055359501 284101.190832752
 704859.191113031 249920.055359501 284101.190832752
 554229.538772090 554229.538772091 160185.007740896
 415742.072258445 679920.136533844 69764.8714615937
 320437.391447884 732576.504491065 25525.3448503264
 256431.101725095 757753.304147750 7281.49168928446
 211759.740711122 771464.377417884 725.664657121593
 178929.699335227 779732.471175545 -1198.36984386865
 153156.396814178 785201.125632758 -1520.00656181872
 130356.326892966 789306.772032980 -1430.96535677942
 106916.546674691 792822.177472668 -1359.02709937217
 36374.9943247261 -799171.495501622 -1334.37834873001
 43636.7596509321 -798807.747961083 -1419.50854534300
 51757.7896555802 -798322.590173688 -1474.18735010733
 61096.5654820989 -797663.040572860 -939.888478563912
 73198.6618718253 -796642.188350276 1783.15469246889
 90417.2645104432 -794797.418858600 11035.4544154738
 117269.021026887 -790443.114405306 38048.1221170786
 163701.837321456 -775281.153533751 110185.486489628
 249920.055359501 -704859.191113031 284101.190832752
 381997.156434286 -381997.156434286 590047.748027428
 381997.156434286 381997.156434286 590047.748027428
 249920.055359501 704859.191113031 284101.190832752
 163701.837321456 775281.153533751 110185.486489628
 117269.021026887 790443.114405306 38048.1221170786
 90417.2645104432 794797.418858600 11035.4544154738
 73198.6618718254 796642.188350276 1783.15469246890
 61096.5654820988 797663.040572860 -939.888478563931
 51757.7896555803 798322.590173688 -1474.18735010734
 43636.7596509320 798807.747961083 -1419.50854534303
 36374.9943247261 799171.495501622 -1334.37834873002
 -36374.9943247261 -799171.495501622 -1334.37834873001
 -43636.7596509321 -798807.747961083 -1419.50854534300
 -51757.7896555802 -798322.590173688 -1474.18735010733
 -61096.5654820989 -797663.040572860 -939.888478563919
 -73198.6618718254 -796642.188350276 1783.15469246890
 -90417.2645104433 -794797.418858600 11035.4544154738
 -117269.021026887 -790443.114405306 38048.1221170786
 -163701.837321456 -775281.153533751 110185.486489628
 -249920.055359501 -704859.191113031 284101.190832752
 -381997.156434286 -381997.156434286 590047.748027428
 -381997.156434286 381997.156434286 590047.748027428
 -249920.055359501 704859.191113031 284101.190832752
 -163701.837321456 775281.153533751 110185.486489628
 -117269.021026887 790443.114405306 38048.1221170786
 -90417.2645104433 794797.418858600 11035.4544154738
 -73198.6618718254 796642.188350276 1783.15469246889
 -61096.5654820989 797663.040572860 -939.888478563926
 -51757.7896555803 798322.590173688 -1474.18735010735
 -43636.7596509321 798807.747961083 -1419.50854534302
 -36374.9943247261 799171.495501622 -1334.37834873001
 -106916.546674691 -792822.177472667 -1359.02709937217
 -130356.326892966 -789306.772032980 -1430.96535677942
 -153156.396814178 -785201.125632758 -1520.00656181871
 -178929.699335227 -779732.471175545 -1198.36984386864
 -211759.740711123 -771464.377417884 725.664657121599
 -256431.101725095 -757753.304147750 7281.49168928447
 -320437.391447884 -732576.504491065 25525.3448503264
 -415742.072258445 -679920.136533844 69764.8714615937
 -554229.538772090 -554229.538772091 160185.007740896
 -704859.191113031 -249920.055359501 284101.190832752
 -704859.191113031 249920.055359501 284101.190832752
 -554229.538772090 554229.538772091 160185.007740896
 -415742.072258445 679920.136533844 69764.8714615936
 -320437.391447884 732576.504491065 25525.3448503265
 -256431.101725095 757753.304147750 7281.49168928445
 -211759.740711122 771464.377417884 725.664657121594
 -178929.699335227 779732.471175545 -1198.36984386866
 -153156.396814178 785201.125632758 -1520.00656181872
 -130356.326892966 789306.772032980 -1430.96535677943
 -106916.546674691 792822.177472668 -1359.02709937217
 -165895.955159521 -782608.779968252 -1424.63269447532
 -215378.882741221 -770460.802924464 -1445.00039266443
 -247950.791909497 -760603.694887052 -1556.95716634324
 -285097.103125989 -747474.028347143 -1489.54209879221
 -331308.431293364 -728171.991034426 -524.239344283774
 -390443.062780045 -698244.379173456 3000.27992231185
 -467097.583759197 -649357.019120342 12462.3017723194
 -565194.949094141 -565194.949094141 33306.7416140202
 -679920.136533844 -415742.072258445 69764.8714615937
 -775281.153533751 -163701.837321456 110185.486489628
 -775281.153533751 163701.837321456 110185.486489628
 -679920.136533844 415742.072258445 69764.8714615937
 -565194.949094141 565194.949094141 33306.7416140202
 -467097.583759197 649357.019120342 12462.3017723194
 -390443.062780045 698244.379173456 3000.27992231185
 -331308.431293364 728171.991034426 -524.239344283778
 -285097.103125988 747474.028347143 -1489.54209879221
 -247950.791909497 760603.694887052 -1556.95716634324
 -215378.882741221 770460.802924464 -1445.00039266444
 -165895.955159521 782608.779968252 -1424.63269447532
 0.000000000000000 0.000000000000000 -0.000000000000000
 -295095.843677193 -743583.451685930 -1446.86671233034
 -331607.153982757 -728034.548183167 -1546.63479477435
 -375609.789455296 -706338.867425547 -1640.25282936419
 -428382.996176868 -675637.607671387 -1353.39817275999
 -491426.536442565 -631268.523634390 101.727682463280
 -565677.932664925 -565677.932664925 4117.40110664371
 -649357.019120341 -467097.583759197 12462.3017723194
 -732576.504491065 -320437.391447884 25525.3448503265
 -790443.114405306 -117269.021026887 38048.1221170786
 -790443.114405306 117269.021026887 38048.1221170786
 -732576.504491065 320437.391447884 25525.3448503265
 -649357.019120341 467097.583759197 12462.3017723194
 -565677.932664925 565677.932664925 4117.40110664371
 -491426.536442565 631268.523634391 101.727682463277
 -428382.996176868 675637.607671387 -1353.39817275999
 -375609.789455296 706338.867425547 -1640.25282936420
 -331607.153982757 728034.548183167 -1546.63479477435
 -295095.843677193 743583.451685930 -1446.86671233034
 0.000000000000000 -0.000000000000000 0.000000000000000
 -0.000000000000000 -0.000000000000000 -0.000000000000000
 -351918.687451818 -718436.510884876 -1489.04323461812
 -402623.642252307 -691297.286399191 -1504.83108747734
 -450450.184163392 -661129.310402529 -1632.94636865952
 -505049.493067337 -620420.990688225 -1674.47480329077
 -565684.705875752 -565684.705875752 -1275.56909944895
 -631268.523634391 -491426.536442565 101.727682463311
 -698244.379173457 -390443.062780045 3000.27992231186
 -757753.304147750 -256431.101725095 7281.49168928443
 -794797.418858600 -90417.2645104427 11035.4544154737
 -794797.418858600 90417.2645104428 11035.4544154737
 -757753.304147750 256431.101725095 7281.49168928444
 -698244.379173456 390443.062780045 3000.27992231186
 -631268.523634391 491426.536442565 101.727682463309
 -565684.705875752 565684.705875752 -1275.56909944895
 -505049.493067337 620420.990688225 -1674.47480329077
 -450450.184163392 661129.310402529 -1632.94636865953
 -402623.642252307 691297.286399191 -1504.83108747735
 -351918.687451818 718436.510884876 -1489.04323461812
 -0.000000000000000 0.000000000000000 0.000000000000000
 0.000000000000000 -0.000000000000000 -0.000000000000000
 0.000000000000000 0.000000000000000 -0.000000000000000
 -465761.127779395 -650434.045916618 -1457.31335179209
 -512818.436478766 -614015.370953362 -1541.24640459540
 -565684.197858342 -565684.197858341 -1666.30931384951
 -620420.990688226 -505049.493067337 -1674.47480329077
 -675637.607671388 -428382.996176868 -1353.39817275998
 -728171.991034427 -331308.431293363 -524.239344283758
 -771464.377417884 -211759.740711123 725.664657121567
 -796642.188350276 -73198.6618718252 1783.15469246884
 -796642.188350276 73198.6618718252 1783.15469246884
 -771464.377417884 211759.740711123 725.664657121568
 -728171.991034427 331308.431293363 -524.239344283759
 -675637.607671387 428382.996176868 -1353.39817275998
 -620420.990688226 505049.493067337 -1674.47480329077
 -565684.197858341 565684.197858342 -1666.30931384952
 -512818.436478766 614015.370953362 -1541.24640459540
 -465761.127779395 650434.045916618 -1457.31335179209
 0.000000000000000 -0.000000000000000 0.000000000000000
 -0.000000000000000 0.000000000000000 0.000000000000000
 -0.000000000000000 0.000000000000000 -0.000000000000000
 -0.000000000000000 -0.000000000000000 0.000000000000000
 -517080.414951194 -610430.748089169 -1465.01235428005
 -565684.482377437 -565684.482377437 -1460.40910114343
 -614015.370953362 -512818.436478766 -1541.24640459538
 -661129.310402529 -450450.184163392 -1632.94636865953
 -706338.867425547 -375609.789455295 -1640.25282936422
 -747474.028347143 -285097.103125987 -1489.54209879221
 -779732.471175546 -178929.699335225 -1198.36984386868
 -797663.040572860 -61096.5654820987 -939.888478563968
 -797663.040572860 61096.5654820988 -939.888478563968
 -779732.471175546 178929.699335225 -1198.36984386868
 -747474.028347143 285097.103125988 -1489.54209879221
 -706338.867425547 375609.789455295 -1640.25282936422
 -661129.310402529 450450.184163392 -1632.94636865953
 -614015.370953362 512818.436478766 -1541.24640459538
 -565684.482377437 565684.482377437 -1460.40910114343
 -517080.414951194 610430.748089170 -1465.01235428005
 -0.000000000000000 -0.000000000000000 -0.000000000000000
 0.000000000000000 0.000000000000000 0.000000000000000
 0.000000000000000 -0.000000000000000 -0.000000000000000
 -0.000000000000000 0.000000000000000 0.000000000000000
 0.000000000000000 0.000000000000000 -0.000000000000000
 -610430.748089170 -517080.414951193 -1465.01235428001
 -650434.045916618 -465761.127779394 -1457.31335179206
 -691297.286399191 -402623.642252307 -1504.83108747731
 -728034.548183167 -331607.153982756 -1546.63479477433
 -760603.694887052 -247950.791909496 -1556.95716634324
 -785201.125632758 -153156.396814177 -1520.00656181873
 -798322.590173688 -51757.7896555803 -1474.18735010737
 -798322.590173688 51757.7896555804 -1474.18735010736
 -785201.125632758 153156.396814177 -1520.00656181873
 -760603.694887052 247950.791909496 -1556.95716634324
 -728034.548183167 331607.153982756 -1546.63479477433
 -691297.286399191 402623.642252307 -1504.83108747731
 -650434.045916618 465761.127779394 -1457.31335179206
 -610430.748089170 517080.414951193 -1465.01235428001
 -0.000000000000000 0.000000000000000 0.000000000000000
 0.000000000000000 0.000000000000000 0.000000000000000
 0.000000000000000 -0.000000000000000 -0.000000000000000
 -0.000000000000000 0.000000000000000 0.000000000000000
 -0.000000000000000 0.000000000000000 0.000000000000000
 -0.000000000000000 0.000000000000000 -0.000000000000000
 -0.000000000000000 -0.000000000000000 0.000000000000000
 -0.000000000000000 0.000000000000000 0.000000000000000
 -718436.510884876 -351918.687451818 -1489.04323461798
 -743583.451685930 -295095.843677193 -1446.86671233024
 -770460.802924464 -215378.882741220 -1445.00039266440
 -789306.772032980 -130356.326892965 -1430.96535677941
 -798807.747961083 -43636.7596509315 -1419.50854534301
 -798807.747961083 43636.7596509316 -1419.50854534301
 -789306.772032980 130356.326892965 -1430.96535677942
 -770460.802924464 215378.882741220 -1445.00039266441
 -743583.451685930 295095.843677193 -1446.86671233024
 -718436.510884876 351918.687451818 -1489.04323461799
 0.000000000000000 0.000000000000000 -0.000000000000000
 -0.000000000000000 0.000000000000000 -0.000000000000000
 -0.000000000000000 0.000000000000000 0.000000000000000
 0.000000000000000 -0.000000000000000 0.000000000000000
 0.000000000000000 0.000000000000000 -0.000000000000000
 -0.000000000000000 -0.000000000000000 0.000000000000000
 -0.000000000000000 0.000000000000000 -0.000000000000000
 -0.000000000000000 -0.000000000000000 -0.000000000000000
 -0.000000000000000 0.000000000000000 -0.000000000000000
 0.000000000000000 -0.000000000000000 0.000000000000000
 0.000000000000000 -0.000000000000000 0.000000000000000
 0.000000000000000 -0.000000000000000 0.000000000000000
 -782608.779968252 -165895.955159520 -1424.63269447524
 -792822.177472668 -106916.546674691 -1359.02709937213
 -799171.495501622 -36374.9943247242 -1334.37834873000
 -799171.495501622 36374.9943247243 -1334.37834873000
 -792822.177472668 106916.546674691 -1359.02709937213
 -782608.779968252 165895.955159520 -1424.63269447525
 0.000000000000000 0.000000000000000 0.000000000000000
 -0.000000000000000 -0.000000000000000 -0.000000000000000
 0.000000000000000 0.000000000000000 -0.000000000000000
 -0.000000000000000 0.000000000000000 0.000000000000000
 0.000000000000000 0.000000000000000 -0.000000000000000
 -0.000000000000000 0.000000000000000 0.000000000000000
 -0.000000000000000 0.000000000000000 0.000000000000000
# End: Data Text
# End: Segment
