# OOMMF OVF 2.0
#
# Segment count: 1
#
# Begin: Segment
# Begin: Header
#
# Title: Oxs_TimeDriver::Magnetization
# Desc: Oxs vector field output
# Desc:  MIF source file: C:/Users/Victor H. González/Documents/GitHub/Intro-to-magnetism-in-python/domain_wall_conversion_thin_film/drive-30/domain_wall_conversion_thin_film.mif
# Desc:  Iteration: 2113, State id: 15084
# Desc:  Stage: 47, Stage iteration: 43
# Desc:  Stage simulation time: 8e-12 s
# Desc:  Total simulation time: 3.84e-10 s
# meshunit: m
# meshtype: rectangular
# xbase: 1.0000000000000001e-09
# ybase: 1.0000000000000001e-09
# zbase: 1.0000000000000001e-09
# xnodes: 225
# ynodes: 25
# znodes: 1
# xstepsize: 2.0000000000000001e-09
# ystepsize: 2.0000000000000001e-09
# zstepsize: 2.0000000000000001e-09
# xmin: 0
# ymin: 0
# zmin: 0
# xmax: 4.5000000000000003e-07
# ymax: 5.0000000000000004e-08
# zmax: 2.0000000000000001e-09
# valuedim: 3
# valuelabels: Magnetization_x Magnetization_y Magnetization_z
# valueunits: A/m A/m A/m
#
# End: Header
#
# Begin: Data Text
 0.000000000000000 -0.000000000000000 -0.000000000000000
 -0.000000000000000 0.000000000000000 0.000000000000000
 0.000000000000000 0.000000000000000 -0.000000000000000
 0.000000000000000 0.000000000000000 0.000000000000000
 0.000000000000000 0.000000000000000 0.000000000000000
 0.000000000000000 -0.000000000000000 0.000000000000000
 -0.000000000000000 -0.000000000000000 0.000000000000000
 -0.000000000000000 -0.000000000000000 -0.000000000000000
 -0.000000000000000 0.000000000000000 -0.000000000000000
 -0.000000000000000 -0.000000000000000 -0.000000000000000
 0.000000000000000 -0.000000000000000 -0.000000000000000
 0.000000000000000 0.000000000000000 0.000000000000000
 0.000000000000000 0.000000000000000 -0.000000000000000
 0.000000000000000 0.000000000000000 0.000000000000000
 0.000000000000000 0.000000000000000 -0.000000000000000
 -0.000000000000000 0.000000000000000 -0.000000000000000
 0.000000000000000 -0.000000000000000 -0.000000000000000
 -0.000000000000000 -0.000000000000000 0.000000000000000
 0.000000000000000 -0.000000000000000 -0.000000000000000
 -0.000000000000000 -0.000000000000000 -0.000000000000000
 0.000000000000000 -0.000000000000000 0.000000000000000
 0.000000000000000 -0.000000000000000 0.000000000000000
 0.000000000000000 0.000000000000000 -0.000000000000000
 -0.000000000000000 -0.000000000000000 0.000000000000000
 0.000000000000000 -0.000000000000000 0.000000000000000
 243757.751606881 280162.744989146 445523.282053479
 176016.088389318 279205.564480278 476930.382122352
 124303.918362694 277650.652064386 493820.464630519
 86654.4370463267 275995.083648030 502710.376203139
 59949.0280263017 274528.153284924 507385.856220561
 41286.1352083351 273343.462615429 509881.168984468
 28358.9941250151 272433.150345407 511249.397109761
 19451.2398547280 271753.412837392 512027.081197219
 13333.9580555182 271253.345376140 512487.881012640
 9139.52084042657 270888.943924782 512772.512151465
 6267.87099291443 270624.261929967 512955.380757505
 4300.91300096576 270432.825052277 513076.592022675
 2955.32455674204 270294.390626321 513159.047910792
 2032.30989559473 270194.739402856 513216.009605615
 1400.69617411601 270123.124984751 513255.818670086
 965.387858566225 270071.945473577 513283.754169563
 667.123186244360 270035.621270654 513303.339353667
 459.158390828245 270009.795843890 513317.152764169
 316.181216483214 269991.752613184 513326.751251384
 213.803801615314 269978.593209752 513333.725266924
 142.912589510776 269969.358353064 513338.606697789
 89.3521375690633 269961.671864105 513342.661134386
 51.9168187063689 269955.843640996 513345.731246226
 21.0279197765365 269949.502647412 513349.067962767
 -0.523987474968466 269944.042399169 513351.939679710
 -20.3950589799289 269936.776974072 513355.759703631
 -33.6940656748244 269930.141511089 513359.248059791
 -47.4066306591579 269920.903693273 513364.104220405
 -55.5050254921998 269912.562188090 513368.489189055
 -64.8822347564613 269901.142945023 513374.491796453
 -68.9000366612021 269891.252706868 513379.690838177
 -74.5915938388083 269877.992143520 513386.661097341
 -75.0221647184679 269867.121866442 513392.375193864
 -77.4046649277833 269852.637140379 513399.988543924
 -74.7191684233854 269841.490393899 513405.847725798
 -74.2797780952682 269826.396866517 513413.780528481
 -69.1487698962474 269815.529588641 513419.492434061
 -66.5853306759566 269800.162175846 513427.568461493
 -59.8920644072001 269789.709234826 513433.062047945
 -56.0621875905369 269773.861342524 513441.389637976
 -48.8089705204647 269763.286949929 513446.946267727
 -44.6052522313158 269745.974881581 513456.041979795
 -37.7714451927306 269733.846009062 513462.414291911
 -33.9667866152526 269713.089330053 513473.317992567
 -28.3516376542182 269696.857198781 513481.844287882
 -25.4390259932780 269669.460112063 513496.233321846
 -21.5071580244937 269645.242715727 513508.950864752
 -19.5453735265290 269606.586775729 513529.247448595
 -17.2816404120684 269568.990397020 513548.984146280
 -15.7487267236648 269512.915109880 513578.414987382
 -14.5223799779115 269455.018972261 513608.793285083
 -12.1768198615636 269373.970407016 513651.305769668
 -10.6210637546177 269287.711973978 513696.533049439
 -5.38810145221699 269173.452185929 513756.413691623
 -1.33233402816153 269050.743393163 513820.686113172
 9.72036043020713 268895.962765510 513901.703746859
 19.1691109780272 268730.839179998 513988.069614616
 39.6343613128721 268531.872907660 514092.045904059
 57.7021312566598 268323.686068382 514200.735282575
 91.2390358587377 268084.069023681 514325.697988292
 120.632300663337 267841.085441231 514452.270281230
 169.866852013131 267574.886753395 514590.760822773
 211.463723162403 267316.803523609 514724.860325411
 276.534314070061 267049.901136457 514863.354524073
 327.977857605809 266807.271893282 514989.099006366
 405.271748004067 266574.664963909 515109.487152188
 460.195621468742 266383.812231936 515208.164532329
 542.079715019178 266222.362800291 515291.528840337
 590.730964292259 266116.327860735 515346.243881573
 666.848368366891 266054.738041407 515377.950322840
 698.326523940284 266053.315821647 515378.642825226
 758.273467158567 266103.256647774 515352.774148735
 763.709247885834 266206.427211554 515299.480748277
 800.080509616184 266358.854187086 515220.652407608
 775.439285364850 266546.737822293 515123.514557634
 785.921503225164 266775.131221788 515005.254040178
 733.198891585712 267014.478455736 514881.278271406
 720.823278872168 267283.384747515 514741.753359598
 647.170502538772 267537.513392088 514609.813449296
 618.750041372698 267812.452533804 514466.818576491
 534.066689698796 268050.358819651 514342.998308937
 497.691570066617 268305.200023313 514210.143757930
 411.855789801307 268506.773137605 514104.992344988
 374.601866175293 268726.675990923 513990.110103601
 295.427724388153 268883.380643308 513908.202246554
 262.051648784742 269063.766101790 513813.800028819
 194.446147628975 269176.146666822 513754.965188948
 167.175108335893 269319.510596676 513679.835368735
 113.318322442831 269393.523787700 513641.038567017
 92.3645776491228 269505.934775364 513582.069965105
 52.4250599703263 269549.660217069 513559.127976979
 36.7502007548074 269638.057380619 513512.722979119
 9.68951851709337 269659.489363220 513501.470010048
 -2.30797294805755 269730.102236768 513464.382349950
 -18.0866048335278 269736.046272689 513461.259506550
 -28.0864531198718 269793.758794644 513430.936861628
 -34.3080539700674 269789.523127179 513433.162187413
 -43.7800598751763 269837.828807617 513407.775776426
 -42.0541472265607 269827.345804681 513413.285460602
 -52.1150855778523 269868.572627362 513391.615428308
 -43.8249755103026 269854.671813700 513398.923041032
 -55.1940144039925 269890.267232043 513380.210572083
 -41.4774828869198 269874.943730373 513388.267324202
 -54.5013495965359 269905.722294669 513372.085433359
 -36.2944532303380 269890.344964822 513380.171391028
 -51.0228716770787 269916.678944056 513366.325175774
 -29.1423551983361 269902.142523539 513373.969550392
 -45.4324482553755 269924.113261253 513362.416832415
 -20.6687980424268 269910.960468344 513369.333902852
 -38.2915478368384 269928.493461573 513360.114297286
 -11.4826951806422 269917.028184041 513366.143960081
 -30.2038565656053 269930.021935892 513359.311150987
 -2.26517071115726 269920.418006608 513364.361772423
 -21.8814638446155 269928.859699631 513359.922688223
 6.21824756016211 269921.254308637 513363.922021976
 -14.1088091424514 269925.304715341 513361.792184880
 13.1999757416323 269919.859145740 513364.655449228
 -7.62542953209766 269919.889427170 513364.639640750
 18.0509618825349 269916.804247855 513366.261511981
 -2.97551941197832 269913.377141141 513368.063704211
 20.4242249723742 269912.861048769 513368.334651953
 -0.382221544516426 269906.663550665 513371.593459164
 20.3461826784915 269908.869139106 513370.433455299
 0.305099665522295 269900.617268771 513374.772264711
 18.2189707225251 269905.567552824 513372.169358700
 -0.432354046142130 269895.911262015 513377.246363587
 14.7270789639239 269903.443911858 513373.285969997
 -1.91246811025110 269892.899062677 513378.829941288
 10.6737135931236 269902.649670529 513373.703637905
 -3.42972794230162 269891.574341385 513379.526362092
 6.79578820839341 269903.007171859 513373.515749892
 -4.42615119025175 269891.624363117 513379.500057266
 3.61304003342143 269904.103135746 513372.939584309
 -4.60450782626272 269892.556437803 513379.010048391
 1.35365910175550 269905.434471422 513372.239647763
 -3.95430791147343 269893.853160834 513378.328341158
 -0.0292705411429102 269906.556732712 513371.649619154
 -2.69265391620299 269895.105905919 513377.669752768
 -0.768168936830694 269907.188986829 513371.317208741
 -1.15093313224435 269896.088726933 513377.153064469
 -1.15876614578052 269907.249216561 513371.285541962
 0.347015800135503 269896.760428668 513376.799933527
 -1.45111042180228 269906.822254025 513371.510018454
 1.57397910547627 269897.209627792 513376.563774248
 -1.78671211228740 269906.085576993 513371.897327184
 2.43384618188987 269897.574951442 513376.371709302
 -2.19139142962448 269905.228133370 513372.348127041
 2.94405951898163 269897.974403418 513376.161702376
 -2.61079373092291 269904.391760461 513372.787846803
 3.18705794378504 269898.466206880 513375.903144096
 -2.96293917031084 269903.648849870 513373.178427494
 3.25768817800823 269899.045615266 513375.598529338
 -3.18282243358158 269903.012434185 513373.513018369
 3.22719208002306 269899.667071795 513375.271808176
 -3.24471835661562 269902.463570690 513373.801579263
 3.13129729444577 269900.274482510 513374.952470863
 -3.16147999534192 269901.979084016 513374.056294761
 2.97747657221566 269900.824929159 513374.663081160
 -2.97008016743609 269901.548671614 513374.282581279
 2.75976965632852 269901.299257399 513374.413709479
 -2.71578181095143 269901.179274907 513374.476789252
 2.46963724663593 269901.701463329 513374.202255140
 -2.44476701312395 269900.891693429 513374.627983420
 2.09527120404568 269902.053879213 513374.016977283
 -2.21088828288110 269900.717264133 513374.719688668
 1.60488698759726 269902.395946441 513373.837139949
 -2.10134227314770 269900.701592496 513374.727928306
 0.906964786203538 269902.792557532 513373.628626192
 -2.29320076553530 269900.920248535 513374.612971595
 -0.232727443770764 269903.356290314 513373.332247760
 -3.17373127442297 269901.510644909 513374.302572230
 -2.36922282689324 269904.288489606 513372.842142343
 -5.60425483104510 269902.726428430 513373.663363336
 -6.77218687908579 269905.947674357 513371.969788130
 -11.5083724147712 269905.025385929 513372.454597029
 -16.3054453031303 269908.959105613 513370.386298876
 -25.1868074779844 269909.207330696 513370.255433386
 -37.3913877100260 269914.384213576 513367.532861682
 -56.2513205551400 269916.622011268 513366.354563498
 -84.3897261975379 269923.970353297 513362.487047005
 -126.158053341732 269929.467274222 513359.588184734
 -189.340090341416 269940.501904713 513353.766501973
 -282.731725842822 269951.204489342 513348.095601343
 -423.604020497238 269968.300528346 513339.008131538
 -632.401814135804 269987.194275959 513328.856577283
 -945.855627872813 270014.105179229 513314.219909591
 -1411.60847707551 270046.052784714 513296.343973833
 -2108.24900181821 270089.366489600 513271.165560070
 -3144.51370667845 270143.768189684 513237.232224853
 -4690.41292176664 270217.797870585 513186.459038618
 -6989.61080294718 270317.499746059 513107.780755528
 -10411.6634679861 270460.076895128 512974.603727817
 -15494.0054480568 270668.375475482 512736.351659055
 -23035.5621655161 270984.754535056 512285.687566317
 -34195.7486108452 271471.862499865 511403.635739714
 -50655.0454650250 272224.272545669 509635.175204692
 -74775.7648049699 273362.181946363 506045.158537610
 -109736.006994087 275006.703642034 498727.702981233
 -159347.632951576 277204.351873024 483907.097669983
 -226879.368054155 279859.706331584 454537.454037999
 -0.000000000000000 -0.000000000000000 -0.000000000000000
 -0.000000000000000 -0.000000000000000 -0.000000000000000
 0.000000000000000 0.000000000000000 -0.000000000000000
 0.000000000000000 -0.000000000000000 0.000000000000000
 -0.000000000000000 -0.000000000000000 -0.000000000000000
 -0.000000000000000 -0.000000000000000 -0.000000000000000
 0.000000000000000 0.000000000000000 0.000000000000000
 0.000000000000000 0.000000000000000 -0.000000000000000
 0.000000000000000 0.000000000000000 -0.000000000000000
 0.000000000000000 0.000000000000000 -0.000000000000000
 -0.000000000000000 0.000000000000000 0.000000000000000
 -0.000000000000000 -0.000000000000000 0.000000000000000
 0.000000000000000 -0.000000000000000 -0.000000000000000
 -0.000000000000000 -0.000000000000000 -0.000000000000000
 -0.000000000000000 0.000000000000000 0.000000000000000
 -0.000000000000000 0.000000000000000 0.000000000000000
 -0.000000000000000 -0.000000000000000 -0.000000000000000
 0.000000000000000 0.000000000000000 -0.000000000000000
 0.000000000000000 -0.000000000000000 0.000000000000000
 -0.000000000000000 -0.000000000000000 -0.000000000000000
 -0.000000000000000 0.000000000000000 0.000000000000000
 0.000000000000000 -0.000000000000000 -0.000000000000000
 0.000000000000000 0.000000000000000 -0.000000000000000
 0.000000000000000 -0.000000000000000 0.000000000000000
 -0.000000000000000 0.000000000000000 0.000000000000000
 241733.303760126 212042.979001202 482703.620153724
 172204.681120850 209333.745043091 512762.060790676
 120620.678553753 205979.760198458 528604.758107434
 83642.5803195428 202948.404150627 536857.396344879
 57659.0241599369 200506.085587709 541177.185933792
 39615.0477102158 198644.158627880 543480.584968717
 27167.2422011959 197268.155467474 544745.092487892
 18617.0416101466 196267.114287434 545465.512760403
 12753.7037725776 195546.782760874 545892.662335695
 8741.61864803025 195029.778598333 546156.543093001
 5993.12664793596 194660.662276769 546325.277645975
 4115.26299745151 194396.433553204 546436.722075170
 2826.28980094642 194208.301951953 546511.799999689
 1946.91862014570 194073.860868767 546563.396172280
 1339.76354129896 193978.444697908 546599.092595509
 926.922720176533 193910.776932881 546623.957948751
 637.805406282333 193862.847114621 546641.372119671
 442.754310571343 193829.533856980 546653.378086522
 301.543806414800 193805.500320948 546661.995310338
 207.937206951122 193789.452560779 546667.728001491
 135.102827965955 193776.611958590 546672.302577217
 88.6507205839613 193768.554249843 546675.168198608
 47.2591441736489 193759.859249851 546678.255201404
 22.9353748033333 193754.692593279 546680.087960091
 -3.78638470865447 193746.221992813 546683.090509643
 -17.1479677756917 193741.252194916 546684.851540531
 -36.4293929691773 193730.961925352 546688.497285590
 -43.4976147402434 193724.999437002 546690.609669758
 -58.1588060659752 193712.060920863 546695.193020155
 -60.7119284531040 193704.908508257 546697.727024605
 -71.7049827627722 193689.296685429 546703.256994048
 -70.4275307729471 193681.389414104 546706.058531077
 -78.0964618867992 193663.557418950 546712.374497577
 -73.4542207418134 193655.645167610 546715.177856985
 -78.1215557653618 193636.215783623 546722.059033674
 -70.7389365871406 193629.049474883 546724.598125469
 -72.9220504333178 193608.507684536 546731.872524861
 -63.6844124649640 193602.530416776 546733.990310203
 -64.1088308332933 193580.927660436 546741.639475340
 -54.1178072654556 193575.984943620 546743.390563042
 -53.6258303582396 193552.666140520 546751.646137592
 -44.0835959925218 193547.739491793 546753.391022181
 -43.4957358248870 193521.086991545 546762.825179010
 -35.5619173280999 193514.036071067 546765.321302326
 -35.5224599138259 193481.209076277 546776.938497352
 -30.1660295023957 193468.500876610 546781.435546753
 -30.9850910733506 193425.156969909 546796.770007917
 -28.8363438573758 193401.587498090 546805.107073520
 -30.3235989761097 193341.623173126 546826.312305160
 -31.5152675586105 193300.111829909 546840.987649364
 -32.7864476918669 193215.560429996 546870.867877209
 -36.7647486083088 193147.221497314 546895.007726548
 -36.0037400755621 193028.590811832 546936.890173747
 -41.3073451111488 192923.434893998 546973.990754957
 -35.5060433263437 192760.904376154 547031.290223336
 -39.5751521490031 192609.614945950 547084.577249424
 -24.3680230186873 192395.525080487 547159.904721831
 -23.5617600518351 192192.632209681 547231.204856921
 6.59280776156618 191925.393928584 547324.988577987
 16.4735025427042 191673.629969242 547413.207095918
 67.4271857719274 191362.395394350 547522.080908625
 89.8285611511601 191077.005520936 547621.739791238
 165.991346005587 190745.288708583 547737.352462248
 201.552009207229 190455.960535050 547838.011161566
 303.551784763576 190141.549680374 547947.168020294
 348.003660011146 189889.369434058 548034.584920868
 470.757633710920 189638.418955531 548121.381122190
 514.073031008096 189466.845250071 548180.673026607
 646.607377929334 189322.555078476 548230.382264114
 674.537503337900 189264.655312755 548250.339943808
 802.295429481412 189254.371943407 548253.717746036
 800.303258361908 189321.532007570 548230.532744211
 909.316848694563 189447.982407747 548186.679065173
 867.423634852676 189625.521072682 548125.359141639
 948.530626507541 189866.418475972 548041.826346089
 864.858333211980 190118.364086853 547954.614595955
 916.002361063406 190434.468229228 547844.753785163
 797.368155806338 190715.126044303 547747.300223314
 823.045145577254 191062.691140998 547626.123053537
 682.502647797525 191329.554999630 547533.136507536
 690.946545191101 191671.574581311 547413.490964913
 543.686799879958 191894.405232584 547335.584121018
 543.427467308870 192206.779055814 547225.966828675
 402.984892294083 192370.600546837 547168.520337588
 400.339797329261 192642.632305003 547072.806806047
 276.404707855104 192745.635470352 547036.601707388
 274.554214855603 192976.785858655 546955.103038307
 172.565869602317 193025.759087284 546937.863518150
 171.925423015877 193221.229125945 546868.838988572
 93.8356757010452 193226.932851532 546866.842673475
 93.0332149551118 193393.906356260 546807.816631298
 38.4751997712084 193367.703928673 546817.089708261
 35.3476007692791 193512.965757626 546765.700125964
 2.69074916398746 193464.971518398 546782.685157591
 -4.98465841835370 193593.819227348 546737.078614687
 -17.8944989023171 193532.235052469 546758.880746699
 -31.9707178922158 193648.265123454 546717.795935481
 -27.3802436624534 193579.416482406 546742.177598046
 -49.1390242248124 193684.753340717 546704.869110110
 -29.1827940040876 193613.415841863 546730.138509311
 -59.2746893465730 193709.079195707 546696.249414300
 -25.9147625095152 193638.842559474 546721.133651017
 -64.3837508034368 193725.093812800 546690.574166004
 -19.4358520241734 193658.651636317 546714.117495288
 -65.7988534384355 193735.268514308 546686.968387029
 -11.0059241344423 193674.616145926 546708.462473006
 -64.3687356851204 193741.104090459 546684.900507116
 -1.48979408588099 193687.671829235 546703.837355429
 -60.6795221237952 193743.439077882 546684.073421085
 8.43660531445186 193698.195637693 546700.108775849
 -55.2535640216294 193742.711282393 546684.331924732
 18.1285761067010 193706.259115675 546697.251548575
 -48.6778008477427 193739.195657131 546685.578460416
 26.9003609640848 193711.860666301 546695.266408601
 -41.6347034575998 193733.207414954 546687.701170664
 34.0487058442494 193715.112015253 546694.113940880
 -34.8398667884774 193725.240432511 546690.524890956
 38.9518305188242 193716.346004883 546693.676361152
 -28.9200043175941 193716.013865589 546693.794674551
 41.1993543839873 193716.125602302 546693.754294162
 -24.2827461565786 193706.420101394 546697.194269232
 40.7000863679383 193715.159536740 546694.096647439
 -21.0296885657581 193697.394392172 546700.392320543
 37.7236693945972 193714.156769092 546694.452179793
 -18.9473920416805 193689.749432658 546703.100965881
 32.8552783773794 193713.669643413 546694.625100534
 -17.5834877224474 193684.028154074 546705.127951835
 26.8721543955326 193713.977631419 546694.516295986
 -16.3857698296066 193680.421229597 546706.405819277
 20.5771083506767 193715.048901713 546694.136977514
 -14.8607738492871 193678.773890303 546706.989459167
 14.6383441442041 193716.589989018 546693.591099023
 -12.7023505802880 193678.676658553 546707.023959307
 9.48177800611476 193718.163760578 546693.033556607
 -9.85255351856483 193679.607070417 546706.694405671
 5.26240402402494 193719.333684770 546692.619054836
 -6.48236787568827 193681.074685342 546706.174527699
 1.91277647475292 193719.786537485 546692.458609237
 -2.90833966788028 193682.725164661 546705.589841857
 -0.759156754443241 193719.397950650 546692.596307159
 0.518548762364718 193684.378745304 546705.004028477
 -2.96359647983601 193718.229639166 546693.010287021
 3.51100986588064 193686.004984241 546704.427877548
 -4.85048769953817 193716.472765118 546693.632810840
 5.90151983893415 193687.657688823 546703.842335309
 -6.47845150146001 193714.368118245 546694.378554032
 7.64811698241485 193689.403074544 546703.223950740
 -7.82871400300942 193712.135338834 546695.169688905
 8.80170799560801 193691.268742013 546702.562949580
 -8.84552319301404 193709.932191795 546695.950316085
 9.45765623814945 193693.226026336 546701.869488356
 -9.47948864722334 193707.848105141 546696.688752195
 9.71372181498468 193695.201948167 546701.169422476
 -9.71601618177549 193705.922080368 546697.371181346
 9.64702434464751 193697.106581232 546700.494611989
 -9.58250228036433 193704.168988281 546697.992336478
 9.31079888247355 193698.860114195 546699.873334328
 -9.13878328425493 193702.600692325 546698.548014820
 8.74308137181017 193700.409498340 546699.324385657
 -8.46107679436269 193701.235949269 546699.031570512
 7.97674083715569 193701.732852059 546698.855519637
 -7.62958987547486 193700.100855991 546699.433756949
 7.04238422145067 193702.836373415 546698.464540828
 -6.72667063209586 193699.226332936 546699.743618721
 5.95900153378005 193703.751280333 546698.140388659
 -5.85000577309199 193698.650058994 546699.947806016
 4.70746049348306 193704.537871355 546697.861698657
 -5.14822310691766 193698.429074838 546700.026108867
 3.17478558250433 193705.302557086 546697.590767682
 -4.89902616060215 193698.668646965 546699.941229549
 1.03680497438244 193706.234313582 546697.260636064
 -5.68066891151052 193699.575287784 546699.619993523
 -2.49871731465022 193707.671347287 546696.751458217
 -8.75448128555044 193701.548453751 546698.920842156
 -9.26506111295990 193710.217819018 546695.849103199
 -16.9222017646354 193705.337148986 546697.578258434
 -23.4191019986042 193714.945067556 546694.173655637
 -36.4445018587997 193712.305720922 546695.108158179
 -54.3074727226733 193723.734233672 546691.057037940
 -81.3231148202555 193724.881909160 546690.646998678
 -122.857059007057 193739.855649523 546685.332928409
 -182.837361908734 193747.314834644 546682.672640047
 -275.794408783447 193768.962966988 546674.960948590
 -410.741534370797 193787.003231661 546668.481503995
 -617.223312854763 193820.902619595 546656.269279981
 -920.287308621632 193857.038945924 546643.029336685
 -1378.59580550547 193913.413088349 546622.070262474
 -2056.27685796403 193981.793223671 546595.678379561
 -3073.30390795935 194080.848567737 546555.741916885
 -4582.49625522990 194210.911063326 546498.968665106
 -6836.67787332478 194397.009015745 546409.244725406
 -10184.5573596238 194656.783043345 546264.598529508
 -15167.4681871671 195036.327504536 546013.533588990
 -22558.3538081642 195592.725766850 545558.985170769
 -33513.7846596505 196426.258836110 544695.833541470
 -49690.9253696927 197675.948505076 543005.553671896
 -73473.8132317163 199538.379784755 539616.561793711
 -108132.937678401 202231.697732009 532737.841927404
 -157881.923038508 205870.796683453 518739.350204496
 -227291.578603337 210027.301595232 490537.532591165
 -0.000000000000000 0.000000000000000 -0.000000000000000
 -0.000000000000000 -0.000000000000000 0.000000000000000
 -0.000000000000000 -0.000000000000000 -0.000000000000000
 0.000000000000000 0.000000000000000 0.000000000000000
 0.000000000000000 -0.000000000000000 -0.000000000000000
 -0.000000000000000 0.000000000000000 0.000000000000000
 0.000000000000000 0.000000000000000 -0.000000000000000
 -0.000000000000000 0.000000000000000 0.000000000000000
 0.000000000000000 0.000000000000000 0.000000000000000
 0.000000000000000 -0.000000000000000 -0.000000000000000
 -0.000000000000000 0.000000000000000 0.000000000000000
 -0.000000000000000 0.000000000000000 0.000000000000000
 -0.000000000000000 0.000000000000000 -0.000000000000000
 -0.000000000000000 -0.000000000000000 0.000000000000000
 -0.000000000000000 0.000000000000000 0.000000000000000
 0.000000000000000 0.000000000000000 -0.000000000000000
 -0.000000000000000 0.000000000000000 -0.000000000000000
 -0.000000000000000 0.000000000000000 0.000000000000000
 0.000000000000000 -0.000000000000000 0.000000000000000
 0.000000000000000 0.000000000000000 -0.000000000000000
 -0.000000000000000 -0.000000000000000 0.000000000000000
 -0.000000000000000 0.000000000000000 -0.000000000000000
 -0.000000000000000 -0.000000000000000 -0.000000000000000
 -0.000000000000000 0.000000000000000 -0.000000000000000
 0.000000000000000 -0.000000000000000 0.000000000000000
 238695.251752892 160777.303425270 503562.543775768
 167647.453325303 157710.372478634 532373.712542413
 116131.628707069 153447.472764450 547144.695593448
 79868.1935111964 149435.231957418 554698.281153900
 54737.3990831769 146136.459908681 558612.524230318
 37456.5509075864 143598.394934054 560692.881858216
 25624.1413914175 141712.493761057 561837.140539832
 17531.3533114597 140341.744400255 562491.641208794
 12005.0371462129 139355.169940767 562881.884318459
 8224.41622711449 138651.844859558 563123.454399446
 5644.22162121114 138150.399403087 563278.447934108
 3873.99037237455 137795.308909034 563380.373319180
 2667.44864070240 137542.697437900 563449.102492190
 1834.43165190793 137364.405726323 563495.922700394
 1269.27332143696 137237.990424287 563528.280505547
 873.536225103329 137148.962694011 563550.706650626
 608.272698344086 137086.639807036 563566.218993599
 416.314985252564 137042.406316628 563577.151375729
 291.219244612937 137012.528467687 563584.494316728
 193.709263375903 136990.074089475 563589.994657181
 133.982311519256 136976.161776999 563593.393461617
 79.8244977539106 136963.215639174 563596.550015902
 50.6463025796120 136956.497145234 563598.186055154
 16.2934110205775 136946.356912642 563600.652113604
 1.80924851511794 136942.175879307 563601.668257083
 -23.1723291681105 136931.214341336 563604.331071054
 -29.8240292849355 136927.281899769 563605.286155185
 -49.6788651182143 136913.713749416 563608.580949007
 -51.2158946271705 136909.210808459 563609.674662117
 -67.4121599575135 136892.426019308 563613.749969027
 -64.8301076699384 136887.472840481 563614.953293828
 -77.7741668522262 136867.601440122 563619.777533761
 -71.5622098470792 136862.864224927 563620.928705632
 -81.4424616622501 136840.417493726 563626.377582941
 -72.1599562345210 136836.752795599 563627.268571435
 -79.3152674898008 136812.282431354 563633.207933148
 -67.8124934390142 136810.391311658 563633.668467931
 -72.8341611619077 136784.158318999 563640.034710229
 -60.2759679439414 136784.254300181 563640.012900390
 -63.9658481504413 136755.914737306 563646.889189263
 -51.7545488234980 136757.410333067 563646.527568883
 -55.0141553056625 136725.713720959 563654.216857230
 -44.6700463759741 136726.911074919 563653.927328195
 -48.3634753546538 136689.385247178 563663.028432523
 -41.3939497426841 136687.137401065 563663.574089761
 -46.2016423791671 136639.724256840 563675.069184741
 -43.9648007117969 136629.039649977 563677.659297778
 -50.2180169046754 136565.674777223 563693.013927609
 -53.7580361754965 136539.292742042 563699.404512348
 -61.2128173673359 136451.510640665 563720.659100651
 -71.0146502267982 136399.599201604 563733.220854121
 -78.4993567301847 136276.409228595 563763.012378083
 -94.0990487083633 136186.732589015 563784.679653586
 -98.9818718844098 136015.235500307 563826.077717575
 -118.416184165448 135874.364150968 563860.038612578
 -115.937825567392 135641.778359152 563916.034992788
 -135.172897025783 135438.023320351 563965.002076693
 -117.917067287425 135135.746248080 564037.513097790
 -130.671987535842 134864.203522384 564102.499137439
 -88.7623747135891 134493.909226930 564190.907851322
 -87.4133685558847 134162.972955526 564269.695311239
 -10.1980154976021 133743.309914257 564369.317866572
 11.6318790205504 133380.261315604 564455.229186586
 132.041907006080 132950.846913763 564556.511670752
 175.434182713641 132602.551241113 564638.408742440
 339.614002282418 132221.085246922 564727.783342076
 396.543754355554 131946.246770250 564792.024303013
 594.489026327411 131676.522467776 564854.795512608
 646.955064785410 131529.648114900 564888.956447119
 858.689057004853 131423.198385197 564913.449635702