# OOMMF OVF 2.0
#
# Segment count: 1
#
# Begin: Segment
# Begin: Header
#
# Title: Oxs_TimeDriver::Magnetization
# Desc: Oxs vector field output
# Desc:  MIF source file: C:/Users/Victor H. González/Documents/GitHub/Intro-to-magnetism-in-python/domain_wall_conversion_thin_film/drive-30/domain_wall_conversion_thin_film.mif
# Desc:  Iteration: 1541, State id: 11054
# Desc:  Stage: 34, Stage iteration: 43
# Desc:  Stage simulation time: 8e-12 s
# Desc:  Total simulation time: 2.8e-10 s
# meshunit: m
# meshtype: rectangular
# xbase: 1.0000000000000001e-09
# ybase: 1.0000000000000001e-09
# zbase: 1.0000000000000001e-09
# xnodes: 225
# ynodes: 25
# znodes: 1
# xstepsize: 2.0000000000000001e-09
# ystepsize: 2.0000000000000001e-09
# zstepsize: 2.0000000000000001e-09
# xmin: 0
# ymin: 0
# zmin: 0
# xmax: 4.5000000000000003e-07
# ymax: 5.0000000000000004e-08
# zmax: 2.0000000000000001e-09
# valuedim: 3
# valuelabels: Magnetization_x Magnetization_y Magnetization_z
# valueunits: A/m A/m A/m
#
# End: Header
#
# Begin: Data Text
 0.000000000000000 -0.000000000000000 -0.000000000000000
 -0.000000000000000 0.000000000000000 0.000000000000000
 0.000000000000000 0.000000000000000 -0.000000000000000
 0.000000000000000 0.000000000000000 0.000000000000000
 0.000000000000000 0.000000000000000 0.000000000000000
 0.000000000000000 -0.000000000000000 0.000000000000000
 -0.000000000000000 -0.000000000000000 0.000000000000000
 -0.000000000000000 -0.000000000000000 -0.000000000000000
 -0.000000000000000 0.000000000000000 -0.000000000000000
 -0.000000000000000 -0.000000000000000 -0.000000000000000
 0.000000000000000 -0.000000000000000 -0.000000000000000
 0.000000000000000 0.000000000000000 0.000000000000000
 0.000000000000000 0.000000000000000 -0.000000000000000
 0.000000000000000 0.000000000000000 0.000000000000000
 0.000000000000000 0.000000000000000 -0.000000000000000
 -0.000000000000000 0.000000000000000 -0.000000000000000
 0.000000000000000 -0.000000000000000 -0.000000000000000
 -0.000000000000000 -0.000000000000000 0.000000000000000
 0.000000000000000 -0.000000000000000 -0.000000000000000
 -0.000000000000000 -0.000000000000000 -0.000000000000000
 0.000000000000000 -0.000000000000000 0.000000000000000
 0.000000000000000 -0.000000000000000 0.000000000000000
 0.000000000000000 0.000000000000000 -0.000000000000000
 -0.000000000000000 -0.000000000000000 0.000000000000000
 0.000000000000000 -0.000000000000000 0.000000000000000
 243762.455584937 280160.416738892 445522.172444752
 176020.436301222 279203.627798224 476929.911232917
 124307.368798318 277649.741125531 493820.108253364
 86656.7927999972 275995.031321706 502709.998853562
 59949.8463866034 274529.763252052 507384.888429874
 41285.5057674595 273346.001870252 509879.858667778
 28356.4007675822 272437.420092588 511247.265683449
 19447.0640906199 271758.055272010 512024.775858581
 13327.5728803160 271259.057239137 512485.023846409
 9131.68781303130 270893.791191917 512770.090948523
 6257.86100268789 270628.885300728 512953.063755892
 4289.98587179551 270434.879231830 513075.600780319
 2942.66419221687 270294.623099263 513158.998217004
 2019.79317567640 270190.623940631 513218.225679973
 1387.40642776377 270115.710941622 513259.756659244
 953.901317195398 270058.742359480 513290.722444399
 656.341151680272 270018.115507810 513312.562201533
 452.367204895258 269985.654351511 513329.856727912
 311.924389522037 269962.893115095 513341.931897350
 216.004867823479 269942.798630319 513352.548264376
 149.490655396355 269928.766997820 513359.950132050
 104.733131876799 269913.921908769 513367.766606746
 73.0721387048895 269902.819493686 513373.609265048
 52.7356682743275 269888.154247283 513381.321646926
 37.4253013952322 269875.182856978 513388.141932845
 28.8059172020030 269855.744363570 513398.360344288
 20.8472477656532 269835.392429704 513409.057728533
 17.6457081954221 269804.712140902 513425.181496967
 12.2351475315319 269769.099901900 513443.894294615
 10.8402380466702 269717.456204480 513471.025181630
 4.73052117904024 269654.474827092 513504.103375374
 2.35553484220102 269566.935077384 513550.063292214
 -7.44212077011596 269458.251713634 513607.097427642
 -13.5492712838348 269312.819153927 513683.370624145
 -30.0700341968825 269132.411543644 513777.913258730
 -42.3355931179498 268899.393645961 513899.906892901
 -67.6764679964574 268614.291770828 514048.983732438
 -86.3355423643937 268259.224461195 514234.363921405
 -118.840384331949 267835.451037538 514455.204118378
 -138.163729741595 267329.090080800 514718.504143143
 -168.008320854396 266746.409340969 515020.703347840
 -171.904961083185 266084.722367268 515362.873101486
 -177.884391959028 265361.200284971 515735.786755644
 -139.549609686028 264592.753184562 516130.463631164
 -93.3882202063457 263811.030500954 516530.474865389
 13.9961839174476 263056.637025090 516915.085406836
 130.310546947837 262369.591875200 517264.130090616
 310.831617100804 261806.941626207 517549.059220513
 481.439945694117 261396.325070675 517756.438352170
 697.783339729101 261192.860483502 517858.863717573
 866.812433946163 261184.103779283 517863.024910273
 1050.98682785181 261408.109248218 517749.645915822
 1151.18943001363 261797.229849936 517552.784946422
 1245.23917456567 262377.337194470 517258.718927132
 1241.18026839471 263034.144245155 516925.041406160
 1231.76562412738 263804.271945889 516532.466410918
 1137.23782753878 264548.267720940 516152.032579523
 1053.81622437827 265335.660932952 515747.880760201
 913.031808088576 266018.379510699 515396.340824631
 800.043406035930 266706.609762995 515040.720952506
 657.623068004963 267248.981466652 514759.700672982
 549.529265627312 267790.717326002 514478.211133972
 433.205145203604 268175.888599941 514277.653711430
 346.105577598675 268573.487050966 514070.191962356
 265.502025321301 268821.265156661 513940.713417653
 201.020343250795 269100.938625631 513794.360052372
 154.227674888554 269244.490746968 513719.164929858
 106.815426500616 269437.645371034 513617.896735868
 87.2502552363989 269509.530091985 513580.184174770
 49.7674617378793 269643.380247410 513509.926887446
 50.4062144089758 269669.778065700 513496.064500216
 16.9166339430592 269764.468339814 513446.327608996
 32.0260863857737 269764.245862551 513446.443778257
 -1.40384296613473 269833.267757519 513410.174820610
 23.9974860092316 269819.115961891 513417.611779791
 -11.4817150657798 269870.869044873 513390.410807540
 21.2631017380432 269850.938106900 513400.886978886
 -17.0303202177766 269890.359261299 513380.164875675
 20.9140668254206 269869.707253268 513391.021220315
 -20.0816000310559 269899.573144878 513375.320806272
 21.3856059705056 269881.239637039 513384.958909618
 -21.6786274478427 269903.081781655 513373.476111497
 21.8895991005167 269888.810306895 513380.978993159
 -22.3304887495317 269903.507430136 513373.252301150
 22.0620263152644 269894.204331147 513378.143264518
 -22.2811277172067 269902.342169746 513373.864931628
 21.7615899950926 269898.359297038 513375.958898739
 -21.6560707964947 269900.435842064 513374.867190905
 20.9613623211336 269901.744455363 513374.179230484
 -20.5366888517004 269898.277465772 513376.001970537
 19.6930702744055 269904.578738811 513372.689172308
 -18.9942457888590 269896.153249583 513377.118793092
 18.0192030428217 269906.953438707 513371.440733456
 -17.1030415532773 269894.233219903 513378.128266219
 16.0187251784664 269908.899834863 513370.417470012
 -14.9434901114718 269892.617838478 513378.977572111
 13.7789401168937 269910.425730480 513369.615279412
 -12.6007256734633 269891.362958343 513379.637346194
 11.3900310662604 269911.534683669 513369.032290587
 -10.1614155831630 269890.493447955 513380.094513962
 8.94084954408034 269912.235610033 513368.663815834
 -7.71005425870254 269890.011068365 513380.348149471
 6.51541180963441 269912.546934511 513368.500168130
 -5.32541006503842 269889.899538582 513380.406812233
 4.18991437741486 269912.497602697 513368.526129445
 -3.07750134918085 269890.128323765 513380.286555601
 2.03025528307579 269912.126294930 513368.721363922
 -1.02526938627768 269890.655923648 513380.009197915
 0.0901470408838033 269911.479643193 513369.061355293
 0.785016017559324 269891.432986859 513379.600685188
 -1.59008821332507 269910.609920332 513369.518621728
 2.32062621962655 269892.405317953 513379.089510183
 -2.98401362529006 269909.572495218 513370.064053743
 3.56253713011913 269893.516734465 513378.505210348
 -4.07889437843113 269908.423272620 513370.668260129
 4.50493289655720 269894.711701866 513377.876982513
 -4.87489972701984 269907.216293030 513371.302829816
 5.15413389308986 269895.937667493 513377.232455843
 -5.38377762541809 269906.001623884 513371.941440534
 5.52705755181515 269897.147018731 513376.596662334
 -5.62711307593139 269904.823634428 513372.560765770
 5.64933402002621 269898.298608813 513375.991234643
 -5.63429615687660 269903.719712674 513373.141149317
 5.55320668261869 269899.358817875 513375.433848234
 -5.44033017506418 269902.719449938 513373.667033995
 5.27534759259371 269900.302141491 513374.937911954
 -5.08360820156910 269901.844287184 513374.127147575
 4.85470876001955 269901.111323323 513374.512498300
 -4.60377757070047 269901.107591458 513374.514462599
 4.33051495993537 269901.777072050 513374.162492228
 -4.03979618308181 269900.515110432 513374.825957412
 3.74048465455330 269902.297422721 513373.888926917
 -3.42826295412892 269900.065738509 513375.062213383
 3.11934416016815 269902.676817370 513373.689467126
 -2.80207972055499 269899.752518513 513375.226888280
 2.49767745526328 269902.924988059 513373.558996421
 -2.18947575832114 269899.563798658 513375.326108005
 1.90113112270481 269903.055727491 513373.490263520
 -1.61340102735105 269899.484465064 513375.367818606
 1.34997194709183 269903.085628614 513373.474544927
 -1.09127207556387 269899.497175287 513375.361137770
 0.858974915386681 269903.032866469 513373.502285367
 -0.635036307695497 269899.583527740 513375.315740004
 0.437602899258486 269902.916084133 513373.563683494
 -0.251506791202082 269899.725114621 513375.241303073
 0.0904267137714954 269902.753431463 513373.649197255
 0.0570883556333368 269899.904421266 513375.147035176
 -0.182274746044907 269902.561792116 513373.749950287
 0.292399786569268 269900.105552297 513375.041293179
 -0.383801282913118 269902.356223258 513373.858026474
 0.459145826631945 269900.314785155 513374.931291608
 -0.520279494139904 269902.149626692 513373.966642856
 0.564231243797054 269900.520976427 513374.822889022
 -0.599961437955693 269901.952674324 513374.070188811
 0.615793926701427 269900.715880263 513374.720420613
 -0.632700373223866 269901.774032554 513374.164108089
 0.622100524493490 269900.894490249 513374.626518468
 -0.629822927102928 269901.620982730 513374.244572611
 0.590047310833117 269901.055603696 513374.541814904
 -0.604839178178208 269901.500641837 513374.307840700
 0.522661708864912 269901.202961847 513374.464343012
 -0.575947902769837 269901.422190432 513374.349085783
 0.414198948940175 269901.347594985 513374.388303740
 -0.572470987205839 269901.400882554 513374.360288189
 0.239639274234076 269901.512487035 513374.301613504
 -0.650009690048632 269901.465256414 513374.326444183
 -0.0686117145006580 269901.741508297 513374.181207804
 -0.925088275889986 269901.670051123 513374.218774920
 -0.672968786894851 269902.115944167 513373.984350988
 -1.65342108490319 269902.119085241 513373.982697372
 -1.94800194118954 269902.784110182 513373.633064436
 -3.40579681016112 269903.005000152 513373.516925337
 -4.74359431018057 269904.012684165 513372.987129713
 -7.46212714459208 269904.676414980 513372.638142745
 -10.9739653517943 269906.272432410 513371.798973428
 -16.6923372546134 269907.747331351 513371.023385506
 -24.9334860601682 269910.375218356 513369.641416209
 -37.5220507236501 269913.267336441 513368.120073561
 -56.2309075409686 269917.681852745 513365.797323239
 -84.3120449538707 269922.972395387 513363.011780863
 -126.322290007920 269930.400352083 513359.097521844
 -189.101116408838 269939.636705613 513354.221542990
 -283.034428622825 269952.001262706 513347.676439441
 -423.248297261139 269967.573289202 513339.390884061
 -632.800263916383 269987.853108836 513328.509570146
 -945.423935198848 270013.514080471 513314.531634843
 -1412.06415675038 270046.578394572 513296.066195916
 -2107.77775233147 270088.904312933 513271.410698069
 -3144.99239565798 270144.169941670 513237.017828370
 -4689.93440033835 270217.453630169 513186.644671263
 -6990.08184960329 270317.789955776 513107.621449107
 -10411.2071286699 270459.837405540 512974.739257883
 -15494.4398861393 270668.567949801 512736.236925593
 -23035.1572610207 270984.605585096 512285.784563509
 -34196.1158510762 271471.971870559 511403.553125523
 -50654.7249204046 272224.198736243 509635.246490711
 -74776.0288043339 273362.225199960 506045.096162367
 -109735.809744611 275006.684936560 498727.756696876
 -159347.754434059 277204.354061681 483907.056412768
 -226879.326676500 279859.711079928 454537.471767815
 -0.000000000000000 -0.000000000000000 -0.000000000000000
 -0.000000000000000 -0.000000000000000 -0.000000000000000
 0.000000000000000 0.000000000000000 -0.000000000000000
 0.000000000000000 -0.000000000000000 0.000000000000000
 -0.000000000000000 -0.000000000000000 -0.000000000000000
 -0.000000000000000 -0.000000000000000 -0.000000000000000
 0.000000000000000 0.000000000000000 0.000000000000000
 0.000000000000000 0.000000000000000 -0.000000000000000
 0.000000000000000 0.000000000000000 -0.000000000000000
 0.000000000000000 0.000000000000000 -0.000000000000000
 -0.000000000000000 0.000000000000000 0.000000000000000
 -0.000000000000000 -0.000000000000000 0.000000000000000
 0.000000000000000 -0.000000000000000 -0.000000000000000
 -0.000000000000000 -0.000000000000000 -0.000000000000000
 -0.000000000000000 0.000000000000000 0.000000000000000
 -0.000000000000000 0.000000000000000 0.000000000000000
 -0.000000000000000 -0.000000000000000 -0.000000000000000
 0.000000000000000 0.000000000000000 -0.000000000000000
 0.000000000000000 -0.000000000000000 0.000000000000000
 -0.000000000000000 -0.000000000000000 -0.000000000000000
 -0.000000000000000 0.000000000000000 0.000000000000000
 0.000000000000000 -0.000000000000000 -0.000000000000000
 0.000000000000000 0.000000000000000 -0.000000000000000
 0.000000000000000 -0.000000000000000 0.000000000000000
 -0.000000000000000 0.000000000000000 0.000000000000000
 241737.929366872 212040.787265988 482702.266455253
 172208.910115174 209332.276801093 512761.239921871
 120624.267631364 205978.514955938 528604.424342952
 83644.8371893081 202949.132932933 536856.769216283
 57660.2891163253 200507.018262820 541176.705602131
 39614.3016876877 198647.843154762 543479.292624620
 27165.4213581587 197271.541882754 544743.956961098
 18612.6201670910 196273.269332265 545463.448927735
 12748.3741377447 195551.455687112 545891.112892943
 8733.25411748465 195036.447049378 546154.295593172
 5984.38966469426 194664.052284863 546324.165517485
 4103.34656221580 194400.495975967 546435.366453607
 2815.06276899576 194206.997749131 546512.321404445
 1932.78985643094 194071.766863524 546564.189853160
 1328.03509217543 193969.041089817 546602.458301726
 913.050619025073 193899.406975854 546628.014570219
 628.703572561223 193842.745945741 546648.510997728
 432.656414181237 193806.840843851 546661.432013045
 299.080564815149 193773.318681707 546673.404802076
 205.735425074395 193754.554961783 546680.098507799
 143.545624677175 193731.896755434 546688.148375466
 98.2744031804044 193721.003258199 546692.018634605
 70.2003082148479 193701.844307288 546698.811580812
 47.0911622928713 193692.641688280 546702.074569174
 35.4865253551438 193671.322808744 546709.628104552
 21.9111833389553 193658.159425726 546714.291753691
 18.1374601291288 193628.545260312 546724.780974311
 7.37708711684221 193604.281270268 546733.373976202
 6.65405771848976 193557.779021123 546749.838716148
 -5.77659958230966 193511.709658558 546766.145798780
 -6.99804689906113 193435.061042639 546793.267250483
 -25.2825712643235 193350.524143573 546823.165359879
 -30.6553704276870 193223.325751413 546868.124364376
 -59.5370123577555 193075.214566706 546920.431118975
 -73.0664084515397 192867.770224505 546993.617759775
 -117.430808340942 192621.062199221 547080.535759817
 -142.058650813364 192294.371518284 547195.444518435
 -204.364490911353 191906.311251664 547331.641636891
 -237.892348073381 191417.804158745 547502.664521622
 -312.618202101162 190848.248049743 547701.422753496
 -340.837173749128 190168.377927563 547937.835768275
 -407.179285027344 189403.180200531 548202.763158811
 -397.726044463809 188546.090581644 548498.143607043
 -416.980961087214 187632.821201945 548811.215751534
 -323.549898681608 186693.561816378 549131.504552213
 -252.730746038134 185772.359720516 549443.870191525
 -40.3382884778600 184942.029945581 549723.970672946
 133.317160019222 184233.386084149 549961.854748585
 449.078388692404 183751.000128246 550123.048308713
 675.789907306265 183469.653224166 550216.711536286
 1013.46306250467 183506.294092143 550203.973923479
 1194.15150886178 183737.432539318 550126.467174625
 1448.24934873660 184290.976045762 549940.668365165
 1498.49613691014 184933.269192186 549724.877056894
 1608.24631625960 185832.643841896 549421.188184909
 1513.15565223061 186665.255792905 549139.137778161
 1490.57352884703 187678.496141754 548793.731994567
 1300.01736882973 188484.709039007 548517.843295295
 1200.83997943754 189429.318766313 548192.567602913
 984.837736300645 190075.919758377 547969.136742792
 864.393184486112 190861.129336173 547696.341171770
 675.969040379466 191305.757531733 547541.459801051
 566.111715347855 191916.123621351 547327.946492485
 430.570467547903 192175.705831787 547236.980381560
 339.836314588438 192635.901572797 547075.217805116
 261.441572451268 192752.221821357 547034.288350589
 184.887496071493 193098.785498526 546912.081467952
 157.374869755142 193116.306732720 546905.903521861
 85.7511624369347 193382.513449000 546811.847109118
 99.8553167812003 193338.498444186 546827.408830486
 24.8280043185239 193549.126214874 546752.901341208
 71.8896282742834 193471.340003782 546780.427071985
 -12.0603938191108 193642.641126084 546719.788733005
 60.9188159216257 193550.442021695 546752.432717134
 -34.5706725120652 193692.047997597 546702.285844283
 58.7368435088719 193598.415368960 546735.448015409
 -48.5998128502204 193715.502376782 546693.974520453
 60.4093969251531 193628.918624475 546724.645706613
 -57.4671419265147 193723.992977487 546690.965027214
 63.1515965236614 193649.858343057 546717.228899539
 -62.9254324892904 193724.032551756 546690.950402763
 65.4804061415757 193665.622662334 546711.644572462
 -65.8623606159701 193719.449690562 546692.574006393
 66.6636678900538 193678.528532379 546707.072518262
 -66.7320295305912 193712.508162296 546695.033568359
 66.3930575683192 193689.714159290 546703.109759634
 -65.7983569263089 193704.574130664 546697.844912008
 64.6007124808978 193699.670722311 546699.582393124
 -63.2619150381846 193696.499487106 546700.706131218
 61.3593296906653 193708.551722904 546696.436081714
 -59.3195698456461 193688.835440122 546703.421890734
 56.8274499571147 193716.349858846 546693.673429652
 -54.1873604266220 193681.948306485 546705.862382996
 51.2176457126087 193722.996535457 546691.318744020
 -48.1043417582069 193676.080898088 546707.941568375
 44.7755703807589 193728.416721679 546689.398607344
 -41.3271919357976 193671.384940497 546709.605684127
 37.7639948906887 193732.558103903 546687.931551812
 -34.1207577628333 193667.938962861 546710.826903631
 30.4493515118065 193735.405251154 546686.923041889
 -26.7472566813126 193665.759515669 546711.599360946
 23.0899479141122 193736.984747789 546686.363656246
 -19.4556625188747 193664.809778651 546711.936100609
 15.9257008790551 193737.364656662 546686.229278060
 -12.4722169959633 193665.007540157 546711.866250327
 9.16950421728123 193736.650344455 546686.482574090
 -5.99264327596787 193666.233411626 546711.432110434
 3.00044576167014 193734.978009107 546687.075287872
 -0.176366592425148 193668.339506004 546710.686078987
 -2.44092213239029 193732.506848449 546687.951014339
 4.85713252404113 193671.158436843 546709.687463227
 -7.05515835685736 193729.410571256 546689.048207424
 9.02982026194768 193674.512314398 546708.499292121
 -10.7843909396336 193725.868824923 546690.303217211
 12.3045562613754 193678.221367671 546707.185261409
 -13.6108065687673 193722.059033267 546691.653181807
 14.6826800758797 193682.111837725 546705.806936873
 -15.5534094461653 193718.149053991 546693.038628797
 16.2000206888938 193686.022832021 546704.421325704
 -16.6633605956925 193714.290971712 546694.405674376
 16.9216729957480 193689.811897537 546703.078901842
 -17.0182617544868 193710.616246888 546695.707742095
 16.9359220987094 193693.359154476 546701.822141311
 -16.7157741340991 193707.232344193 546696.906757424
 16.3477096736136 193696.569920724 546700.684592308
 -15.8669639474740 193704.220868201 546697.973808284
 15.2720248732375 193699.375843154 546699.690474338
 -14.5897465147797 193701.637146534 546698.889292718
 13.8275683586635 193701.734631716 546698.854772408
 -13.0027604671167 193699.511126199 546699.642601309
 12.1309873557990 193703.628560865 546698.183767967
 -11.2199463870188 193697.849390169 546700.231402672
 10.2919169593496 193705.061955812 546697.675929550
 -9.34603535791184 193696.638059939 546700.660615047
 8.40899295377883 193706.057915702 546697.323073790
 -7.47307817223260 193695.846326197 546700.941155337
 6.56692890308933 193706.654541249 546697.111702004
 -5.67807114001791 193695.430343831 546701.088559075
 4.83467967812429 193706.900931610 546697.024418551
 -4.02166470890338 193695.337237837 546701.121561084
 3.26464910596853 193706.853196534 546697.041343776
 -2.54788049883758 193695.508991454 546701.060717875
 1.89284461142997 193706.570698431 546697.141445491
 -1.28471378667669 193695.886024056 546700.927139972
 0.739839081667720 193706.112698680 546697.303727227
 -0.245463909800458 193696.410310642 546700.741386649
 -0.187629237111274 193705.535537280 546697.508227521
 0.569384289764807 193697.027944047 546700.522558118
 -0.894604753797071 193704.890429613 546697.736800557
 1.16990822203585 193697.691092896 546700.287601820
 -1.39560292343907 193704.221923607 546697.973662810
 1.57429096981324 193698.359361936 546700.050830449
 -1.71223318488337 193703.567031154 546698.205700801
 1.80629214870976 193699.000618416 546699.823629169
 -1.87095862351981 193702.955037099 546698.422538784
 1.89271136968458 193699.591414686 546699.614305884
 -1.90123201606576 193702.408010125 546698.616357737
 1.86078269527662 193700.117227406 546699.428006494
 -1.83436428671228 193701.942113798 546698.781430851
 1.73518411638407 193700.572875326 546699.266566876
 -1.70378478149627 193701.569980920 546698.913282278
 1.53380835431456 193700.963722308 546699.128086644
 -1.54808309044146 193701.304737885 546699.007261258
 1.26026617371639 193701.308711254 546699.005854190
 -1.41991510738702 193701.166865933 546699.056111093
 0.888483339179069 193701.647065461 546698.885972286
 -1.40770908373909 193701.196164140 546699.045730463
 0.328919844294859 193702.051898408 546698.742535812
 -1.68579502107036 193701.472964630 546698.947656286
 -0.647108427951048 193702.656410781 546698.528349024
 -2.62806751473066 193702.155962939 546698.705658247
 -2.57769213323811 193703.702467846 546698.157710088
 -5.06386040320975 193703.549345925 546698.211946178
 -6.69295659765179 193705.628086221 546697.475394689
 -10.8518952789707 193706.220460376 546697.265437823
 -15.7728784410674 193709.221095365 546696.202121291
 -24.1645421574005 193711.202781880 546695.499645710
 -36.0657653723956 193715.883229169 546693.840539660
 -54.3555906755089 193720.340620251 546692.259571547
 -81.5694901887850 193728.077152467 546689.514687475
 -122.352063305795 193736.870315417 546686.391005264
 -183.566489705473 193750.083622682 546681.691114260
 -274.874862365494 193766.415585714 546675.864324441
 -411.819366507239 193789.328930237 546667.656257051
 -616.017770237667 193818.797667210 546657.016961223
 -921.591485502706 193858.927724199 546642.357314869
 -1377.22018889925 193911.734915893 546622.669056507
 -2057.69817322930 193983.268875168 546595.149333336
 -3071.86101641389 194079.566610558 546556.205247140
 -4583.93784724275 194212.009728315 546498.566138194
 -6835.25958379460 194396.082893818 546409.591956401
 -10185.9308944361 194657.548302007 546264.300225510
 -15166.1611859915 195035.711416174 546013.789960718
 -22559.5716894378 195593.205081513 545558.762967960
 -33512.6803842491 196425.903714093 544696.029546356
 -49691.8891852663 197676.193314017 543005.376350988
 -73473.0193421006 199538.229913916 539616.725307488
 -108133.531070088 202231.771198159 532737.693594483
 -157881.557233379 205870.777513454 518739.469147634
 -227291.703038298 210027.292291193 490537.478917544
 -0.000000000000000 0.000000000000000 -0.000000000000000
 -0.000000000000000 -0.000000000000000 0.000000000000000
 -0.000000000000000 -0.000000000000000 -0.000000000000000
 0.000000000000000 0.000000000000000 0.000000000000000
 0.000000000000000 -0.000000000000000 -0.000000000000000
 -0.000000000000000 0.000000000000000 0.000000000000000
 0.000000000000000 0.000000000000000 -0.000000000000000
 -0.000000000000000 0.000000000000000 0.000000000000000
 0.000000000000000 0.000000000000000 0.000000000000000
 0.000000000000000 -0.000000000000000 -0.000000000000000
 -0.000000000000000 0.000000000000000 0.000000000000000
 -0.000000000000000 0.000000000000000 0.000000000000000
 -0.000000000000000 0.000000000000000 -0.000000000000000
 -0.000000000000000 -0.000000000000000 0.000000000000000
 -0.000000000000000 0.000000000000000 0.000000000000000
 0.000000000000000 0.000000000000000 -0.000000000000000
 -0.000000000000000 0.000000000000000 -0.000000000000000
 -0.000000000000000 0.000000000000000 0.000000000000000
 0.000000000000000 -0.000000000000000 0.000000000000000
 0.000000000000000 0.000000000000000 -0.000000000000000
 -0.000000000000000 -0.000000000000000 0.000000000000000
 -0.000000000000000 0.000000000000000 -0.000000000000000
 -0.000000000000000 -0.000000000000000 -0.000000000000000
 -0.000000000000000 0.000000000000000 -0.000000000000000
 0.000000000000000 -0.000000000000000 0.000000000000000
 238699.733817894 160775.521772558 503560.988038219
 167651.772513914 157708.502820859 532372.906251761
 116135.045553698 153447.353948844 547144.003677586
 79871.0042213578 149434.736421768 554698.009943454
 54738.4402957644 146139.166505398 558611.714133435
 37456.9188609553 143600.192457218 560692.396912687
 25621.8903731426 141718.266777780 561835.787036754
 17528.5848303703 140345.522208468 562490.784911075
 11998.8209768078 139362.843584786 562880.117008169
 8218.15774248335 138655.779038265 563122.577084787
 5633.84252642329 138157.406243103 563276.833287652
 3864.54164263577 137796.353601081 563380.182693834
 2653.52352376693 137545.579710778 563448.464648662
 1823.08220022701 137359.007691127 563497.275394833
 1253.52322618575 137233.214307276 563529.478883239
 862.768504698967 137133.922852720 563554.383208516
 593.596478373279 137071.395115515 563569.942672875
 409.712106588194 137015.547920304 563583.686566679
 281.405976375597 136985.166799881 563591.150469456
 195.458584655650 136950.381128576 563599.640617947
 133.002766978114 136935.950775801 563603.165086385
 93.8143326771082 136910.135146970 563609.444644880
 61.5730222375264 136902.386764381 563611.331244306
 44.8921844918526 136877.944929285 563617.269232081
 25.4700512484099 136870.209261454 563619.149043041
 19.4383759571300 136840.677935827 563626.319900173
 3.58879445683232 136826.083611909 563629.863323926
 1.68806463545923 136783.628495139 563640.167990939
 -16.7420790679065 136752.645996846 563647.685644645
 -19.3509195337934 136685.522646821 563663.966849317
 -46.2035718666238 136623.170830625 563679.081621285
 -54.7629004936066 136512.661299857 563705.854418646
 -97.1794399421855 136395.086257042 563734.308873507
 -118.343841848334 136211.904283626 563778.594065226
 -185.162885297278 136002.712756497 563829.076793295
 -226.338730246543 135703.871185037 563901.062347087
 -326.116977130973 135352.058268303 563985.561845560
 -391.433774236342 134881.250590392 564098.302620006
 -525.999618077158 134325.275489853 564230.842553805
 -606.851970711674 133623.129418715 564397.458370460
 -759.080852651824 132809.194572316 564589.356641897
 -819.992617448425 131842.567182027 564815.779782188
 -940.205140986094 130765.627767857 565065.895811074
 -910.060986858596 129580.666628467 565338.856461435
 -917.701511477279 128344.130548094 565620.846484453
 -709.063745283062 127124.014157407 565896.617990524
 -533.544767851109 125978.566551017 566152.908762052
 -106.177274149350 125044.275451588 566360.236866231
 238.094367488300 124330.734138555 566517.265279391
 806.962264600761 124016.762713684 566585.555214675
 1183.29141516499 123985.248372121 566591.791334405
 1712.89578857677 124433.825923125 566492.090813411
 1938.04922014272 125067.120784784 566351.886430887
 2264.13274250235 126127.715251567 566115.423874270
 2241.19776444194 127153.021408361 565886.107073947
 2322.33218475320 128496.860104468 565582.145860808
 2090.64205424749 129572.458689415 565337.604591258
 1997.84752222332 130894.016077282 565033.419507589
 1671.32961260875 131780.568414342 564828.370786842
 1506.04207127807 132908.902039213 564564.394552128
 1190.39515514255 133514.561407680 564422.222145346
 1023.17278659309 134406.260971076 564210.873813350
 778.347374342469 134743.551751930 564130.808799378
 636.381406147671 135426.706922560 563967.376778849
 480.763099668553 135553.992485182 563936.950366057
 362.266057658574 136079.292285534 563810.513359206
 290.889132627235 136061.894486048 563814.753489460
 182.503139243412 136476.393628042 563714.609243798
 182.066749164369 136369.474821655 563740.483900673
 69.8238043822585 136707.716635636 563658.580469514