# OOMMF OVF 2.0
#
# Segment count: 1
#
# Begin: Segment
# Begin: Header
#
# Title: Oxs_TimeDriver::Magnetization
# Desc: Oxs vector field output
# Desc:  MIF source file: C:/Users/Victor H. González/Documents/GitHub/Intro-to-magnetism-in-python/domain_wall_conversion_thin_film/drive-48/domain_wall_conversion_thin_film.mif
# Desc:  Iteration: 2013, State id: 14583
# Desc:  Stage: 87, Stage iteration: 22
# Desc:  Stage simulation time: 4e-12 s
# Desc:  Total simulation time: 3.52e-10 s
# meshunit: m
# meshtype: rectangular
# xbase: 1.0000000000000001e-09
# ybase: 1.0000000000000001e-09
# zbase: 1.0000000000000001e-09
# xnodes: 125
# ynodes: 25
# znodes: 1
# xstepsize: 2.0000000000000001e-09
# ystepsize: 2.0000000000000001e-09
# zstepsize: 2.0000000000000001e-09
# xmin: 0
# ymin: 0
# zmin: 0
# xmax: 2.5000000000000004e-07
# ymax: 5.0000000000000004e-08
# zmax: 2.0000000000000001e-09
# valuedim: 3
# valuelabels: Magnetization_x Magnetization_y Magnetization_z
# valueunits: A/m A/m A/m
#
# End: Header
#
# Begin: Data Text
 0.000000000000000 -0.000000000000000 -0.000000000000000
 -0.000000000000000 0.000000000000000 0.000000000000000
 0.000000000000000 0.000000000000000 -0.000000000000000
 0.000000000000000 0.000000000000000 0.000000000000000
 0.000000000000000 0.000000000000000 0.000000000000000
 0.000000000000000 -0.000000000000000 0.000000000000000
 -0.000000000000000 -0.000000000000000 0.000000000000000
 -0.000000000000000 -0.000000000000000 -0.000000000000000
 -0.000000000000000 0.000000000000000 -0.000000000000000
 -0.000000000000000 -0.000000000000000 -0.000000000000000
 0.000000000000000 -0.000000000000000 -0.000000000000000
 0.000000000000000 0.000000000000000 0.000000000000000
 0.000000000000000 0.000000000000000 -0.000000000000000
 0.000000000000000 0.000000000000000 0.000000000000000
 0.000000000000000 0.000000000000000 -0.000000000000000
 -0.000000000000000 0.000000000000000 -0.000000000000000
 0.000000000000000 -0.000000000000000 -0.000000000000000
 -0.000000000000000 -0.000000000000000 0.000000000000000
 0.000000000000000 -0.000000000000000 -0.000000000000000
 -0.000000000000000 -0.000000000000000 -0.000000000000000
 0.000000000000000 -0.000000000000000 0.000000000000000
 0.000000000000000 -0.000000000000000 0.000000000000000
 0.000000000000000 0.000000000000000 -0.000000000000000
 -0.000000000000000 -0.000000000000000 0.000000000000000
 0.000000000000000 -0.000000000000000 0.000000000000000
 243762.412885466 280160.448399103 445522.175898203
 176020.415992025 279203.682178377 476929.886893273
 124307.302688512 277649.750761346 493820.119477193
 86656.7923135371 275995.121628508 502709.949357672
 59949.7561552538 274529.757781864 507384.902050856
 41285.5111211783 273346.144533216 509879.781752806
 28356.2836053836 272437.418473658 511247.273044561
 19447.0561139832 271758.279181125 512024.657321318
 13327.4177297847 271259.097549545 512485.006544837
 9131.63845507295 270894.153880473 512769.900220858
 6257.64326504355 270629.043671165 512952.982857491
 4289.85178595480 270435.494863651 513075.277410155
 2942.34244589734 270295.053866664 513158.773164942
 2019.51310470021 270191.722922705 513217.648206763
 1386.92143473665 270116.737873450 513259.217520290
 953.385856781006 270060.806220537 513289.637533159
 655.584211736422 270020.421284643 513311.350253046
 451.428033995640 269989.659324693 513327.751120536
 310.628143392946 269967.806261947 513339.348864149
 214.238824602968 269950.532273267 513348.482248760
 147.193857341872 269938.623850685 513354.767862895
 101.692734042653 269928.478848921 513360.113336531
 69.6169705429389 269921.800241926 513363.630293027
 48.7634532877550 269915.440027988 513366.976788168
 33.9329418851172 269911.866740188 513368.856711607
 25.6784817218397 269908.363529218 513370.699044652
 19.3717444034811 269907.957723726 513370.912676345
 16.6239187326224 269907.985580504 513370.898126802
 12.0642284478519 269911.198165304 513369.209204667
 7.92948520317447 269913.977986881 513367.747744656
 -1.58031656700837 269917.628850932 513365.828267712
 -12.1936585096787 269916.950177245 513366.184957998
 -28.1914400443674 269911.892537659 513368.843495572
 -41.0326795140406 269897.196097553 513376.569250096
 -52.0582003749204 269874.111796443 513388.703685643
 -48.3908711710497 269841.137489191 513406.036365821
 -30.5963934389529 269804.585340504 513425.247522070
 14.2908586166910 269769.810492622 513443.520888663
 80.3996084920226 269749.056729559 513454.418550873
 174.162350567513 269752.945443179 513452.352309545
 278.444953156331 269794.827024530 513430.300799643
 389.449941979179 269883.619827865 513383.560388674
 478.239590749457 270025.091041083 513309.089628411
 533.960755010868 270218.212680319 513207.397084031
 522.330074091459 270454.099480318 513083.138726644
 434.308508083019 270717.910535227 512944.075208556
 240.103322051899 270985.213728011 512803.038496438
 -58.0930507711767 271230.442340993 512673.427995549
 -477.820916349949 271419.137132829 512573.334933883
 -1000.28321606403 271523.237019298 512517.444768517
 -1627.98122435203 271507.048485249 512524.411418580
 -2325.15743678461 271349.894075215 512604.944014651
 -3080.75541142052 271023.891311161 512773.399548622
 -3845.11735860761 270525.280642215 513031.468436343
 -4597.70108336267 269842.306789205 513384.836756432
 -5280.59132904084 268996.912587448 513821.735987917
 -5870.73291404144 268000.285042335 514335.864695706
 -6311.66911505917 266906.051733368 514899.332278735
 -6589.38232788911 265749.497594199 515493.728932726
 -6663.42309599761 264612.884346544 516077.145619186
 -6542.95648909637 263543.739019953 516625.480734124
 -6217.36514810322 262634.607660440 517092.261815686
 -5726.26314408741 261918.269827286 517461.138483930
 -5090.60025656741 261468.557352298 517695.160596597
 -4370.54495708559 261274.374092292 517799.768037278
 -3603.24337600913 261370.435308049 517757.194236888
 -2845.42278438687 261692.137549693 517599.390179172
 -2129.26228615379 262240.117969764 517325.416705308
 -1486.94327918845 262913.615657461 516985.705509935
 -935.633076570995 263704.433101466 516584.065330494
 -477.356506670383 264504.744434343 516175.369717006
 -119.460766986113 265322.232896176 515755.851600457
 159.382007338166 266063.031246171 515374.075794926
 350.195280345749 266760.788388408 515013.164046960
 488.604020422338 267341.744644716 514711.718184490
 555.454037228164 267861.606854767 514441.299901159
 595.149789816996 268262.940285182 514232.088328098
 575.135700976265 268613.295972983 514049.186795832
 546.279145121733 268865.095599236 513917.563377152
 462.514561665573 269087.663111450 513801.144064023
 379.275794559846 269238.399487570 513722.240506719
 236.917010147534 269381.313405461 513647.400322710
 91.3396002644250 269476.659936574 513597.431269380
 -133.342486933521 269579.373303205 513543.516860288
 -389.534944273584 269652.760383947 513504.855945730
 -777.803152832340 269741.617063406 513457.744168178
 -1276.49631639729 269814.026782450 513418.699998932
 -2031.47240191271 269905.633474575 513368.115623252
 -3083.00356494912 269992.175835262 513317.367791856
 -4669.43316542640 270103.326732755 513246.908691920
 -6968.64378190729 270227.525759125 513155.456295597
 -10416.5877262133 270396.054284175 513008.253859226
 -15489.4292714761 270621.117012232 512761.434399952
 -23047.0941744255 270952.971845557 512301.979791388
 -34194.5622846438 271450.189708076 511415.219188490
 -50664.1228997559 272209.838456518 509641.982668495
 -74773.8638766600 273353.246879665 506050.265982837
 -109740.293092027 274999.891257407 498730.516291605
 -159345.837927869 277200.160431042 483910.089781222
 -226879.892777175 279855.538674987 454539.758136019
 -0.000000000000000 -0.000000000000000 -0.000000000000000
 -0.000000000000000 -0.000000000000000 -0.000000000000000
 0.000000000000000 0.000000000000000 -0.000000000000000
 0.000000000000000 -0.000000000000000 0.000000000000000
 -0.000000000000000 -0.000000000000000 -0.000000000000000
 -0.000000000000000 -0.000000000000000 -0.000000000000000
 0.000000000000000 0.000000000000000 0.000000000000000
 0.000000000000000 0.000000000000000 -0.000000000000000
 0.000000000000000 0.000000000000000 -0.000000000000000
 0.000000000000000 0.000000000000000 -0.000000000000000
 -0.000000000000000 0.000000000000000 0.000000000000000
 -0.000000000000000 -0.000000000000000 0.000000000000000
 0.000000000000000 -0.000000000000000 -0.000000000000000
 -0.000000000000000 -0.000000000000000 -0.000000000000000
 -0.000000000000000 0.000000000000000 0.000000000000000
 -0.000000000000000 0.000000000000000 0.000000000000000
 -0.000000000000000 -0.000000000000000 -0.000000000000000
 0.000000000000000 0.000000000000000 -0.000000000000000
 0.000000000000000 -0.000000000000000 0.000000000000000
 -0.000000000000000 -0.000000000000000 -0.000000000000000
 -0.000000000000000 0.000000000000000 0.000000000000000
 0.000000000000000 -0.000000000000000 -0.000000000000000
 0.000000000000000 0.000000000000000 -0.000000000000000
 0.000000000000000 -0.000000000000000 0.000000000000000
 -0.000000000000000 0.000000000000000 0.000000000000000
 241737.910108358 212040.839675165 482702.253077706
 172208.822913253 209332.256555474 512761.277473470
 120624.319096623 205978.654816143 528604.358100279
 83644.6825684522 202949.032506139 536856.831271472
 57660.3930090500 200507.265774376 541176.602829174
 39614.0932554821 198647.672575490 543479.370165866
 27165.5488336208 197271.920411949 544743.813524807
 18612.3662420618 196273.054126219 545463.535029462
 12748.4935427161 195552.010470404 545890.911367257
 8732.95207857679 195036.238149822 546154.375022630
 5984.46121272575 194664.872811412 546323.872366300
 4102.98174402798 194400.398003969 546435.404047639
 2815.03486663056 194208.258705320 546511.873456878
 1932.34015330019 194072.001441051 546564.108150358
 1327.84583019685 193971.097031600 546601.729179307
 912.484886572720 193900.455565198 546627.643559069
 628.254380039610 193846.328771672 546647.241023110
 431.875953317104 193809.697932708 546660.419703488
 298.141460251526 193779.830248794 546671.097187713
 204.489822628005 193761.048205869 546677.797593861
 141.768047434968 193743.775229952 546683.939275214
 96.4120414512205 193734.312812066 546687.302526732
 67.7129817882361 193723.468094154 546691.149850192
 45.5089012623292 193718.952294073 546692.752330801
 33.9634280179582 193711.814056612 546695.282530755
 23.2614191776913 193710.895614657 546695.608523678
 20.4659564545468 193707.359862739 546696.861447139
 14.1575738707776 193710.478257006 546695.756717578
 13.3903531826631 193710.797764553 546695.643525828
 4.51128828657144 193716.640451127 546693.573395533
 -0.659669077844606 193717.009632743 546693.442596957
 -16.7851893139957 193718.392476707 546692.952336591
 -26.9617553725387 193708.896011706 546696.316869786
 -44.9945954079765 193694.638971371 546701.367118499
 -47.4038278613012 193666.283759950 546711.412252834
 -47.7161032233624 193633.279766387 546723.102392871
 -18.2184428726927 193593.242471934 546737.282556524
 22.9308972358388 193561.406203467 546748.554184380
 101.563395332297 193543.319473002 546754.948008930
 188.057745208484 193557.083600878 546750.052603754
 300.890846599955 193611.111521837 546730.872514053
 395.699987444325 193717.843584004 546693.003886719
 483.954098118695 193879.948534224 546635.464770442
 510.369657492725 194094.842282983 546559.174949938
 486.568083970651 194353.335969346 546467.331181916
 355.445043966225 194633.476712577 546367.718118115
 138.618686169454 194915.035203447 546267.434354730
 -213.852228015095 195159.459922156 546180.134635193
 -663.190691943005 195342.840916089 546114.213952482
 -1247.45327212062 195417.433664791 546086.504576153
 -1908.47931902710 195365.974746059 546103.006417480
 -2672.12663497384 195139.924964569 546180.619780736
 -3462.20651769156 194739.278986052 546319.161613449
 -4294.31193393619 194122.767111847 546532.624985786
 -5077.53170882974 193318.616714356 546810.873249054
 -5820.88518256305 192301.149071752 547162.119815851
 -6425.56861657661 191138.283613599 547562.661807031
 -6902.43698878652 189826.474098499 548013.016355403
 -7159.06028872831 188480.199317742 548474.212995403
 -7223.54829191090 187114.051456891 548940.936802369
 -7030.72432022822 185880.279285716 549362.440186984
 -6641.52938993922 184786.555494153 549736.135792408
 -6033.19637105149 183992.789409846 550009.321727125
 -5298.38964890291 183457.985509757 550195.505815733
 -4450.61701525599 183314.254484718 550250.921045022
 -3587.57223821313 183441.065521728 550214.962360792
 -2734.70755103153 183932.144268916 550055.895049993
 -1958.62363785985 184593.460187884 549837.628986330
 -1278.01922013166 185504.372121488 549532.978619742
 -708.249897405525 186433.323795019 549219.550053368
 -264.345807399058 187480.453519429 548863.379785392
 87.7917880684833 188413.056978429 548543.992996591
 319.489057401856 189371.076000187 548213.912174138
 503.312012028412 190138.979463573 547947.912821619
 581.239208714837 190893.352556441 547685.484663182
 655.813816746838 191438.231511082 547495.181188061
 632.923854207271 191971.181639453 547308.564547776
 641.227995567187 192312.138912304 547188.843137022
 551.080187419613 192662.158456009 547065.799524791
 514.819082093347 192854.193585694 546998.167252619
 370.727788661768 193078.912844293 546919.003121827
 290.364592718442 193182.297681394 546882.542737416
 82.7413783831936 193335.573328274 546828.445894772
 -70.2602208170926 193400.183755821 546805.599812873
 -389.668303147428 193523.114912815 546761.970287853
 -699.344603613989 193585.047125610 546739.737394768
 -1259.05950139484 193707.415071808 546695.392440223
 -1927.54373756654 193794.567424607 546662.556072619
 -3029.39355570950 193944.377439469 546604.428480323
 -4514.28570968453 194090.431511303 546542.336530563
 -6836.10043872742 194313.759535496 546438.862624149
 -10149.4361833360 194586.901721568 546290.148752072
 -15184.9408288079 194990.471336479 546029.425635655
 -22538.0854511345 195557.299728134 545572.522426889
 -33533.5211116415 196403.108013100 544702.966877040
 -49676.9930803404 197660.695824196 543012.380784076
 -73488.0373995702 199526.769843716 539618.917825248
 -108123.945879326 202225.870681413 532741.878919454
 -157887.845734066 205864.272315882 518740.136825085
 -227289.473869895 210023.501534024 490540.134822151
 -0.000000000000000 0.000000000000000 -0.000000000000000
 -0.000000000000000 -0.000000000000000 0.000000000000000
 -0.000000000000000 -0.000000000000000 -0.000000000000000
 0.000000000000000 0.000000000000000 0.000000000000000
 0.000000000000000 -0.000000000000000 -0.000000000000000
 -0.000000000000000 0.000000000000000 0.000000000000000
 0.000000000000000 0.000000000000000 -0.000000000000000
 -0.000000000000000 0.000000000000000 0.000000000000000
 0.000000000000000 0.000000000000000 0.000000000000000
 0.000000000000000 -0.000000000000000 -0.000000000000000
 -0.000000000000000 0.000000000000000 0.000000000000000
 -0.000000000000000 0.000000000000000 0.000000000000000
 -0.000000000000000 0.000000000000000 -0.000000000000000
 -0.000000000000000 -0.000000000000000 0.000000000000000
 -0.000000000000000 0.000000000000000 0.000000000000000
 0.000000000000000 0.000000000000000 -0.000000000000000
 -0.000000000000000 0.000000000000000 -0.000000000000000
 -0.000000000000000 0.000000000000000 0.000000000000000
 0.000000000000000 -0.000000000000000 0.000000000000000
 0.000000000000000 0.000000000000000 -0.000000000000000
 -0.000000000000000 -0.000000000000000 0.000000000000000
 -0.000000000000000 0.000000000000000 -0.000000000000000
 -0.000000000000000 -0.000000000000000 -0.000000000000000
 -0.000000000000000 0.000000000000000 -0.000000000000000
 0.000000000000000 -0.000000000000000 0.000000000000000
 238699.673425730 160775.524619739 503561.015756480
 167651.827947322 157708.635322698 532372.849543038
 116134.867232577 153447.219322522 547144.079283562
 79871.1679176341 149435.028777885 554697.907612446
 54738.1665829928 146138.893291776 558611.812430231
 37457.1530251748 143600.665250555 560692.260180972
 25621.5484597725 141717.870667683 561835.902544455
 17528.8507230976 140346.209565500 562490.605124142
 11998.4287993994 139362.356097687 562880.246064158
 8218.41651304682 138656.749390037 563122.334380911
 5633.40947548443 138156.892648539 563276.963590187
 3864.75039839199 137797.737842990 563379.842690270
 2653.05846895230 137545.181643336 563448.564012246
 1823.19938441671 137361.061281266 563496.774425275
 1253.04963561897 137233.249069602 563529.471471024
 862.757202127225 137137.170266052 563553.592998421
 593.141322525765 137072.557432819 563569.660452191
 409.492944709192 137021.032442632 563582.353329026
 280.937044429523 136988.812334339 563590.264615708
 194.875301958683 136959.966441700 563597.311576187
 132.542891386739 136944.451126542 563601.099837493
 93.0285261677600 136927.043481857 563605.337189962
 61.9975929577908 136920.127096273 563607.021737877
 45.5339021457533 136908.608812410 563609.821383299
 29.7489965710873 136906.713229125 563610.282897496
 25.3778010556386 136899.363514232 563612.068381583
 16.4536346719426 136901.963803969 563611.437105294
 17.1275273420668 136898.987750464 563612.159964231
 7.97182933153244 136905.636269705 563610.545229626
 6.79533287547856 136904.978138508 563610.705110112
 -8.85365882355964 136910.521078245 563609.358633882
 -15.3973124940609 136903.924887916 563610.960781643
 -36.4895919802858 136897.362949669 563612.553697960
 -40.4578992505513 136873.891852578 563618.253867178
 -51.7124844985385 136847.489570070 563624.664048859
 -31.2741083360754 136807.544661697 563634.362637312
 -8.10746224968924 136773.168954586 563642.706143165
 58.7812647099083 136743.015142542 563650.019386578
 128.749573230631 136740.104451778 563650.713880559
 238.347974002159 136769.286414485 563643.597926843
 330.011609207505 136849.701358284 563624.032782924
 434.043984829015 136984.169778929 563591.295919123
 477.537550129812 137177.270172218 563544.291521072
 490.146903390970 137422.236559670 563484.594869240
 391.811037072415 137702.046787645 563416.358295181
 221.444408809460 137999.235669731 563343.733360853
 -98.5344205269396 138275.417717779 563276.041693539
 -511.616100512592 138508.673330481 563218.506142328
 -1086.97675855736 138644.978070490 563184.151532480
 -1747.06399225783 138667.972426024 563176.829415649
 -2551.25474007601 138514.971535291 563211.411247880
 -3401.04077531404 138185.510437175 563287.846155819
 -4346.17539246153 137614.700659667 563421.072486473
 -5267.81668209086 136829.149449497 563604.501373375
 -6205.79691990160 135769.983178499 563851.043940063
 -7022.80743704002 134506.147310417 564144.286961599
 -7751.54421825320 132996.735411604 564492.499447148
 -8246.36644288933 131371.276504894 564865.988664536
 -8546.78034834934 129615.549145978 565266.982907426
 -8524.51044143581 127927.459252557 565651.746122046
 -8252.02224358295 126305.544345776 566020.152994934
 -7651.83963869116 124992.742111053 566319.930577852
 -6847.34278154407 123949.596745212 566559.450864189
 -5824.49376314565 123410.393671077 566688.582915125
 -4737.12664281180 123233.888826563 566737.124490581
 -3608.08342762422 123604.462493491 566664.732082097
 -2565.65993078791 124256.721223582 566527.743910115
 -1630.53368044532 125339.133931255 566292.718357989
 -857.891787735452 126501.274748297 566035.945421081
 -257.134426255000 127908.984695256 565720.094672370
 198.706643895844 129187.515075891 565429.523870293
 486.906912820728 130560.983937586 565113.787121592
 700.438580989454 131668.767742361 564856.481760635
 772.777407789004 132797.064568241 564592.191282466
 846.834549378441 133609.240825571 564400.437311365
 795.996726413665 134431.765686608 564205.163715817
 806.187593583119 134949.009059688 564081.656336538
 689.426177884676 135499.854038437 563949.744433941
 672.669765566001 135786.915287272 563880.715357560
 513.017957597574 136138.405412753 563796.125726532
 475.290194879302 136276.791026685 563762.725201569
 269.621826626826 136503.765079124 563707.946922246
 190.715559342808 136566.725188638 563692.729418099
 -92.4462178848514 136731.272093915 563652.863636189
 -270.192442230676 136776.326897541 563641.875126805
 -714.295514197810 136926.804984931 563604.950172137
 -1125.43973496732 136999.955459442 563586.502313100
 -1927.34596732853 137179.827440770 563540.575540789
 -2875.50686603484 137328.891333340 563500.228097042
 -4482.32807042167 137595.172427091 563424.775156212
 -6642.35956794343 137894.912300064 563330.162712000
 -10049.7163335451 138352.629511436 563167.429019902
 -14907.6136551981 138952.711862100 562911.988610365
 -22305.9720798844 139821.827092725 562452.042647214
 -33104.5645556103 141037.597718384 561615.957603958
 -49246.3737844414 142766.880676145 559993.225361778
 -72921.6581660663 145190.354190241 556778.405490392
 -107738.461588909 148469.301471397 550226.580978282
 -158084.177008179 152585.819576703 536774.590162158
 -229333.030956009 156772.128591552 509145.225460678
 0.000000000000000 -0.000000000000000 0.000000000000000
 0.000000000000000 -0.000000000000000 0.000000000000000
 0.000000000000000 0.000000000000000 0.000000000000000
 -0.000000000000000 -0.000000000000000 -0.000000000000000
 0.000000000000000 0.000000000000000 -0.000000000000000
 -0.000000000000000 0.000000000000000 0.000000000000000
 0.000000000000000 0.000000000000000 -0.000000000000000
 -0.000000000000000 0.000000000000000 0.000000000000000
 -0.000000000000000 0.000000000000000 0.000000000000000
 -0.000000000000000 0.000000000000000 0.000000000000000
 -0.000000000000000 -0.000000000000000 -0.000000000000000
 -0.000000000000000 0.000000000000000 0.000000000000000
 0.000000000000000 0.000000000000000 -0.000000000000000
 -0.000000000000000 0.000000000000000 0.000000000000000
 -0.000000000000000 0.000000000000000 0.000000000000000
 0.000000000000000 0.000000000000000 0.000000000000000
 0.000000000000000 -0.000000000000000 0.000000000000000
 0.000000000000000 0.000000000000000 -0.000000000000000
 0.000000000000000 0.000000000000000 -0.000000000000000
 -0.000000000000000 0.000000000000000 0.000000000000000
 0.000000000000000 0.000000000000000 -0.000000000000000
 0.000000000000000 -0.000000000000000 0.000000000000000
 0.000000000000000 -0.000000000000000 0.000000000000000
 -0.000000000000000 0.000000000000000 0.000000000000000
 0.000000000000000 0.000000000000000 -0.000000000000000
 232515.151901158 125008.406475955 516439.350211352
 160840.587784094 121627.040660833 543817.219570468
 110016.338102092 116538.090671373 557418.405484854
 74955.2882811149 111612.088650804 564202.487078619
 51039.7003437830 107509.073348157 567659.006919328
 34786.4374232523 104334.266378281 569477.185346968
 23742.3969683045 101968.718155229 570472.329832026
 16229.6190006498 100250.136506040 571039.849395481
 11110.1899722285 99012.3801316803 571378.256726173
 7615.80142976719 98133.2469220157 571587.145951625
 5226.81396071461 97504.4701669458 571721.574468975
 3590.70492625865 97062.5080973293 571809.388135582
 2469.48632088313 96743.8787960995 571869.323843128
 1698.98713536820 96522.4194105615 571909.552284140
 1170.66810000293 96359.0423163221 571938.427193068
 805.777423617461 96248.2365666018 571957.714941028
 556.494460810653 96162.5451923050 571972.425223500
 382.393962770408 96107.6745467993 571981.790503915
 265.178389674020 96061.0639375393 571989.686686403
 180.883940153245 96034.7417537270 571994.139530550
 126.656916846765 96007.7574589223 571998.683972030
 84.6689339284155 95996.0221197994 572000.661335585
 61.2629049810268 95978.8425707311 572003.547214211
 39.5629841810593 95974.8833972367 572004.213438727
 32.2058952590709 95963.3561838924 572006.147897646
 20.1298642088117 95964.9179830232 572005.886430638
 20.7255620469595 95958.3593899738 572006.986700019
 10.7145330469700 95964.9971997802 572005.873394361
 12.0203823295998 95962.3069483946 572006.324703366
 -3.17779021450788 95970.4141795977 572004.964656862
 -6.63076172332977 95964.9882034410 572005.874965586
 -29.1370967482878 95964.3897210506 572005.974668531
 -33.2658172239771 95944.5796379997 572009.297591808
 -51.6182377515411 95924.6009473668 572012.646948165
 -37.0414958141041 95885.8116203095 572019.151565611
 -26.7246132953209 95851.8226337412 572024.848571795
 31.7854092241671 95813.8802893368 572031.204860004
 89.4468918595934 95800.4683506008 572033.445056370
 196.798781229046 95811.5168030758 572031.567763645
 285.956314568065 95873.4591529835 572021.151758418
 401.816215158358 95987.1504320637 572002.015289860
 457.168689145936 96165.2559270095 571972.057489947
 495.503413644443 96400.6836196926 571932.393447008
 417.739828365405 96682.9160014039 571884.812918565
 276.129795110258 96994.0282219575 571832.215113502
 -29.8869863982679 97298.4570178152 571780.560502646
 -429.783393172407 97572.8391955923 571733.641075585
 -1018.73831588344 97761.1557783051 571700.724674312
 -1703.81405901579 97844.4856900036 571684.837683938
 -2573.29071135093 97752.1450088487 571697.381768610
 -3511.81435606948 97479.1014809601 571739.006833007
 -4600.60806610303 96943.8940623068 571822.276419394
 -5700.90289586961 96164.4130551542 571943.970479565
 -6883.11837560606 95053.7271296961 572116.606680999
 -7980.83550373479 93667.6691280815 572330.913043123
 -9047.95424485361 91927.9995339856 572597.046294916
 -9890.58162863662 89955.7874102146 572896.266968512
 -10551.2359060431 87705.1196207842 573233.358601154
 -10830.4768778891 85393.4549320536 573577.072960003
 -10791.1823582553 83018.5702780159 573926.360583225
 -10280.3014820842 80895.3098271250 574238.856443389
 -9429.33264293082 79023.3092410963 574514.059255729
 -8181.49770381006 77751.9445991122 574706.619247055
 -6747.53197753555 76980.4665735952 574829.086405971
 -5156.05310636054 76999.0616917364 574843.073903615
 -3628.60861440350 77521.8102474881 574784.483206946
 -2208.43601250024 78752.0593548194 574624.430352343
 -1030.53850775123 80238.3396106144 574422.098153367
 -104.029091770061 82167.9412598540 574150.170780316
 563.953067139967 84020.6133107339 573881.711240066
 976.097495491808 86055.5516975366 573579.540478661
 1231.29984725350 87763.6687144977 573320.174382917
 1288.36491573613 89505.7835725768 573050.656419573
 1317.84754980052 90809.1708626748 572845.492052673
 1196.32110906602 92110.8810516985 572637.891173544
 1149.43521406532 92968.7353212798 572499.338909182
 962.612491140898 93852.6966286813 572355.435645296
 914.657358375738 94343.0611450787 572274.890429148
 708.421245980154 94905.5617663008 572182.167220511
 676.204848275609 95143.1074687374 572142.754780829
 451.882313976079 95492.0009521689 572084.848214428
 416.344910787753 95584.7499855608 572069.385850277
 146.735023996493 95812.8199193265 572031.364531648
 59.7052142521534 95848.1580397826 572025.460128890
 -316.447448453655 96028.8809808265 571995.064557889
 -551.895613629433 96076.3171287183 571986.920041196
 -1167.54783820067 96272.1572879364 571953.065000243
 -1757.76699422640 96396.2210555352 571930.659102488
 -2910.33275811270 96676.1434203182 571878.705021101
 -4309.28598145170 96959.1425003988 571821.960700983
 -6665.06855290638 97427.8930714578 571719.671266296
 -9876.24912059941 98007.6626561877 571574.105225191
 -14915.5417542159 98854.2526338697 571318.968134594
 -22148.4041642442 99984.9989650778 570887.421629634
 -33128.5337171304 101554.686719060 570078.192758806
 -49202.2628422293 103677.448170978 568533.309553590
 -73164.2417034560 106500.546016162 565424.289745512
 -108261.560025097 110112.673234821 559065.858208149
 -159423.938344469 114317.058393693 545816.469193586
 -231985.818128661 118200.786379113 518277.101835047
 -0.000000000000000 0.000000000000000 -0.000000000000000
 0.000000000000000 0.000000000000000 -0.000000000000000
 -0.000000000000000 0.000000000000000 0.000000000000000
 0.000000000000000 0.000000000000000 -0.000000000000000
 0.000000000000000 0.000000000000000 0.000000000000000
 -0.000000000000000 0.000000000000000 0.000000000000000
 0.000000000000000 0.000000000000000 0.000000000000000
 0.000000000000000 0.000000000000000 0.000000000000000
 -0.000000000000000 -0.000000000000000 0.000000000000000
 -0.000000000000000 -0.000000000000000 0.000000000000000
 -0.000000000000000 -0.000000000000000 -0.000000000000000
 0.000000000000000 0.000000000000000 0.000000000000000
 -0.000000000000000 -0.000000000000000 0.000000000000000
 0.000000000000000 0.000000000000000 -0.000000000000000
 0.000000000000000 0.000000000000000 0.000000000000000
 0.000000000000000 0.000000000000000 -0.000000000000000
 -0.000000000000000 -0.000000000000000 0.000000000000000
 0.000000000000000 -0.000000000000000 -0.000000000000000
 0.000000000000000 -0.000000000000000 -0.000000000000000
 0.000000000000000 0.000000000000000 -0.000000000000000
 0.000000000000000 -0.000000000000000 0.000000000000000
 0.000000000000000 -0.000000000000000 0.000000000000000
 -0.000000000000000 0.000000000000000 -0.000000000000000
 0.000000000000000 0.000000000000000 0.000000000000000
 -0.000000000000000 0.000000000000000 -0.000000000000000
 220451.603180099 102054.401081310 526674.462904040
 149586.281051730 97725.0457860313 551791.409816455
 100946.368336807 91370.9366809891 563791.790158076
 68210.3718188281 85350.3057651288 569616.248435853
 46247.4819299819 80429.2061276247 572531.495392888
 31470.0642462999 76667.3163496751 574048.567335615
 21484.4270290047 73897.0252763642 574871.854460226
 14706.9414675768 71890.7113736756 575339.405473722
 10090.0995235106 70459.9446631360 575615.832035286
 6934.97960416990 69438.1239112217 575786.638439604
 4773.22512785244 68718.4158281148 575894.951920880
 3289.40222842901 68202.8454395543 575966.623778608
 2268.30385545976 67843.0479949318 576014.041179880
 1566.07364235916 67581.0021451668 576047.181715527
 1080.57596472286 67401.3001032228 576069.350946550
 747.358492933654 67265.6523628548 576085.734476634
 514.970344659942 67176.4331525584 576096.399602049