# OOMMF OVF 2.0
#
# Segment count: 1
#
# Begin: Segment
# Begin: Header
#
# Title: Oxs_TimeDriver::Magnetization
# Desc: Oxs vector field output
# Desc:  MIF source file: C:/Users/Victor H. González/Documents/GitHub/Intro-to-magnetism-in-python/domain_wall_conversion_thin_film/drive-42/domain_wall_conversion_thin_film.mif
# Desc:  Iteration: 1106, State id: 7773
# Desc:  Stage: 91, Stage iteration: 11
# Desc:  Stage simulation time: 2e-12 s
# Desc:  Total simulation time: 1.84e-10 s
# meshunit: m
# meshtype: rectangular
# xbase: 1.0000000000000001e-09
# ybase: 1.0000000000000001e-09
# zbase: 1.0000000000000001e-09
# xnodes: 75
# ynodes: 25
# znodes: 1
# xstepsize: 2.0000000000000001e-09
# ystepsize: 2.0000000000000001e-09
# zstepsize: 2.0000000000000001e-09
# xmin: 0
# ymin: 0
# zmin: 0
# xmax: 1.5000000000000002e-07
# ymax: 5.0000000000000004e-08
# zmax: 2.0000000000000001e-09
# valuedim: 3
# valuelabels: Magnetization_x Magnetization_y Magnetization_z
# valueunits: A/m A/m A/m
#
# End: Header
#
# Begin: Data Text
 0.000000000000000 -0.000000000000000 -0.000000000000000
 -0.000000000000000 0.000000000000000 0.000000000000000
 0.000000000000000 0.000000000000000 -0.000000000000000
 0.000000000000000 0.000000000000000 0.000000000000000
 0.000000000000000 0.000000000000000 0.000000000000000
 0.000000000000000 -0.000000000000000 0.000000000000000
 -0.000000000000000 -0.000000000000000 0.000000000000000
 -0.000000000000000 -0.000000000000000 -0.000000000000000
 -0.000000000000000 0.000000000000000 -0.000000000000000
 -0.000000000000000 -0.000000000000000 -0.000000000000000
 0.000000000000000 -0.000000000000000 -0.000000000000000
 0.000000000000000 0.000000000000000 0.000000000000000
 0.000000000000000 0.000000000000000 -0.000000000000000
 0.000000000000000 0.000000000000000 0.000000000000000
 0.000000000000000 0.000000000000000 -0.000000000000000
 -0.000000000000000 0.000000000000000 -0.000000000000000
 0.000000000000000 -0.000000000000000 -0.000000000000000
 -0.000000000000000 -0.000000000000000 0.000000000000000
 0.000000000000000 -0.000000000000000 -0.000000000000000
 -0.000000000000000 -0.000000000000000 -0.000000000000000
 0.000000000000000 -0.000000000000000 0.000000000000000
 0.000000000000000 -0.000000000000000 0.000000000000000
 0.000000000000000 0.000000000000000 -0.000000000000000
 -0.000000000000000 -0.000000000000000 0.000000000000000
 0.000000000000000 -0.000000000000000 0.000000000000000
 250279.362597591 337760.161594841 399597.690054849
 187016.341342571 336631.695467125 433709.568349337
 135917.720972351 331166.118945180 456350.057289871
 96748.0833734401 323540.024970101 471552.394338012
 67715.9357105795 315315.335917666 482069.280276155
 46667.5354917890 307409.468191909 489613.684446309
 31677.1278649590 300290.147694590 495199.340435534
 21125.1620727698 294127.575181011 499442.386112290
 13804.2501719525 288953.937536900 502707.732841968
 8759.93731095053 284680.303807972 505252.796253627
 5344.21176644734 281228.993706673 507229.427871971
 3040.45905504589 278445.997120833 508781.468113885
 1525.64479479044 276262.220702329 509977.311084108
 534.615018101157 274521.365620131 510918.519927435
 -93.2688357158916 273195.958357329 511628.732224985
 -480.859702928136 272141.401481306 512190.224793227
 -723.265737097373 271371.181372680 512598.438162924
 -855.226226202605 270751.776779560 512925.670988315
 -959.891545965513 270324.516115186 513150.791283917
 -1005.82304769906 269966.406587799 513339.193549517
 -1091.36334020390 269730.593974393 513462.964195355
 -1125.40258269939 269510.503771733 513578.447586864
 -1233.65662686567 269356.381423671 513659.048277817
 -1268.95441285688 269191.542334561 513745.368144802
 -1389.14984768340 269050.290100300 513819.045637319
 -1400.27001712920 268903.582736310 513895.808929647
 -1492.89875198855 268756.087939195 513972.700100828
 -1444.54433924451 268642.360009862 514032.290522672
 -1473.31389782040 268520.814964959 514095.712174993
 -1353.34391205888 268498.201994951 514107.852484023
 -1314.49245653587 268468.632534549 514123.395163662
 -1154.15908411584 268610.770727547 514049.532405158
 -1084.63010346136 268742.337317527 513980.913761057
 -951.053860376744 269108.331404382 513789.647098211
 -910.416111571099 269455.055027235 513607.967678436
 -880.737660237266 270088.264026579 513275.319819960
 -934.033837368097 270712.685713055 512946.166156660
 -1096.51906197845 271690.612046914 512428.540356136
 -1358.80790495315 272737.832274006 511871.300707076
 -1915.04260320095 274265.908885765 511052.388542400
 -2743.31522098088 276064.517547008 510079.264794341
 -4315.11452079622 278576.952478385 508700.561563017
 -6780.45934500064 281717.705365115 506940.982615220
 -11107.7195275981 285920.223861930 504505.940652477
 -18014.8133377591 291218.215323286 501265.815276013
 -29422.8018563592 297917.105590022 496769.259241939
 -47370.2945424627 305978.247455560 490442.012147190
 -75521.3888129525 315163.780382036 481007.600113623
 -118103.898192802 324526.405500765 465976.481557188
 -180216.987737704 331836.422571816 440234.512487932
 -0.000000000000000 -0.000000000000000 -0.000000000000000
 -0.000000000000000 -0.000000000000000 -0.000000000000000
 0.000000000000000 0.000000000000000 -0.000000000000000
 0.000000000000000 -0.000000000000000 0.000000000000000
 -0.000000000000000 -0.000000000000000 -0.000000000000000
 -0.000000000000000 -0.000000000000000 -0.000000000000000
 0.000000000000000 0.000000000000000 0.000000000000000
 0.000000000000000 0.000000000000000 -0.000000000000000
 0.000000000000000 0.000000000000000 -0.000000000000000
 0.000000000000000 0.000000000000000 -0.000000000000000
 -0.000000000000000 0.000000000000000 0.000000000000000
 -0.000000000000000 -0.000000000000000 0.000000000000000
 0.000000000000000 -0.000000000000000 -0.000000000000000
 -0.000000000000000 -0.000000000000000 -0.000000000000000
 -0.000000000000000 0.000000000000000 0.000000000000000
 -0.000000000000000 0.000000000000000 0.000000000000000
 -0.000000000000000 -0.000000000000000 -0.000000000000000
 0.000000000000000 0.000000000000000 -0.000000000000000
 0.000000000000000 -0.000000000000000 0.000000000000000
 -0.000000000000000 -0.000000000000000 -0.000000000000000
 -0.000000000000000 0.000000000000000 0.000000000000000
 0.000000000000000 -0.000000000000000 -0.000000000000000
 0.000000000000000 0.000000000000000 -0.000000000000000
 0.000000000000000 -0.000000000000000 0.000000000000000
 -0.000000000000000 0.000000000000000 0.000000000000000
 248264.776612750 272511.048252957 447774.864494978
 182355.592625441 269330.377415989 480216.186356921
 130970.111222432 261502.751566766 500862.397160531
 92408.0791155428 251957.977340469 514176.938970113
 64189.0209199826 242317.555777599 523031.520804725
 43965.2387866258 233411.326678662 529137.232064180
 29631.1497675400 225577.037006670 533513.819257519
 19649.7191836683 218937.256797363 536731.186090439
 12713.8532205183 213397.022149724 539166.086539128
 8010.51251268835 208912.201149746 541009.726252729
 4794.87547014577 205253.286168609 542446.400749615
 2684.85413893701 202399.063746461 543532.345452236
 1272.29276606559 200076.402566325 544396.743567809
 384.036581632927 198344.335891618 545031.537560550
 -180.703832633332 196908.007540367 545552.200905292
 -528.856629556035 195911.013330404 545910.794147285
 -711.046061015947 195041.590601928 546221.816068316
 -856.938251663547 194507.690446399 546411.954494080
 -882.306056088609 193989.353508119 546596.150975769
 -993.495945958848 193725.848744870 546689.407702294
 -967.634553017599 193410.588472075 546801.067985659
 -1117.46422120723 193274.302463122 546848.969351784
 -1075.89869343650 193060.647507629 546924.518398961
 -1273.67709750627 192948.156883451 546963.789022574
 -1205.70127770137 192779.672701306 547023.348749947
 -1416.53103126520 192634.812850989 547073.872815821
 -1289.90682775756 192508.267009420 547118.728680901
 -1462.31445782468 192331.466774259 547180.471622378
 -1256.38434324440 192296.230247229 547193.367404144
 -1355.62986319484 192138.047881801 547248.693761662
 -1090.89088061215 192273.829149736 547201.594095983
 -1120.54164771308 192207.931942782 547224.684462146
 -864.542293079718 192587.683393968 547091.616433270
 -860.851180343084 192681.240575262 547058.679179504
 -704.270191267884 193348.387051183 546823.468066435
 -712.945213146063 193663.228759309 546712.031636073
 -743.721577301841 194656.919192995 546358.976029961
 -825.042395524122 195304.857210769 546127.578551868
 -1163.25243559207 196743.833173392 545610.218885251
 -1499.34179926655 197987.682016095 545159.270070740
 -2480.34915972803 200189.003097947 544351.183434643
 -3686.29958844074 202550.875461005 543469.920092478
 -6327.07789617664 206133.543602161 542096.790515597
 -10151.6496343599 210446.080113303 540378.933133636
 -17174.9740992955 216325.898094933 537873.708297877
 -27987.3391068534 223576.557272884 534443.852886085
 -45956.8875349786 232578.704679201 529334.592311746
 -73710.8165657827 243015.525951650 521450.064404684
 -116920.360718287 253973.103255450 508160.695127341
 -181445.147637170 262878.045401524 484120.637491111
 -0.000000000000000 0.000000000000000 -0.000000000000000
 -0.000000000000000 -0.000000000000000 0.000000000000000
 -0.000000000000000 -0.000000000000000 -0.000000000000000
 0.000000000000000 0.000000000000000 0.000000000000000
 0.000000000000000 -0.000000000000000 -0.000000000000000
 -0.000000000000000 0.000000000000000 0.000000000000000
 0.000000000000000 0.000000000000000 -0.000000000000000
 -0.000000000000000 0.000000000000000 0.000000000000000
 0.000000000000000 0.000000000000000 0.000000000000000
 0.000000000000000 -0.000000000000000 -0.000000000000000
 -0.000000000000000 0.000000000000000 0.000000000000000
 -0.000000000000000 0.000000000000000 0.000000000000000
 -0.000000000000000 0.000000000000000 -0.000000000000000
 -0.000000000000000 -0.000000000000000 0.000000000000000
 -0.000000000000000 0.000000000000000 0.000000000000000
 0.000000000000000 0.000000000000000 -0.000000000000000
 -0.000000000000000 0.000000000000000 -0.000000000000000
 -0.000000000000000 0.000000000000000 0.000000000000000
 0.000000000000000 -0.000000000000000 0.000000000000000
 0.000000000000000 0.000000000000000 -0.000000000000000
 -0.000000000000000 -0.000000000000000 0.000000000000000
 -0.000000000000000 0.000000000000000 -0.000000000000000
 -0.000000000000000 -0.000000000000000 -0.000000000000000
 -0.000000000000000 0.000000000000000 -0.000000000000000
 0.000000000000000 -0.000000000000000 0.000000000000000
 244664.865408455 219591.124249370 477827.209130623
 176361.635662284 216023.552479955 508557.173030196
 124631.091958507 207177.716611347 527204.405005249
 86703.6538190634 196623.479014658 538722.269740723
 59538.0726103879 186200.514125321 546062.804491668
 40301.4569248344 176744.816342403 550941.977403996
 26916.0890263725 168595.029126640 554302.480876021
 17600.9698724494 161733.238817894 556715.874859900
 11284.3913729088 156145.204576471 558472.324828290
 6939.60938506944 151564.381682314 559803.608443926
 4094.62212662859 147985.840969676 560788.217549315
 2161.79548496535 145054.354246481 561564.387184958
 960.883658241648 142879.052526139 562125.122238660
 171.390210118489 141047.786713998 562588.208629081
 -292.359913764097 139801.734139797 562899.093672380
 -552.598322378051 138676.321935017 563177.212225131
 -728.325841054042 138025.149015885 563336.957584546
 -754.336100347272 137342.205259627 563503.815099304
 -867.761221067584 137051.352684435 563574.461555730
 -800.042925174263 136635.401956896 563675.551060533
 -960.248789546856 136530.412220452 563700.740163764
 -856.435677745759 136261.688763563 563765.925445332
 -1097.34377151489 136207.956272386 563778.492392843
 -961.621488083292 136011.881573957 563826.075447762
 -1260.40292840642 135916.957646392 563848.376789902
 -1065.06098083821 135770.593686282 563884.040858741
 -1364.13342153880 135597.628075639 563925.014873670
 -1080.24613223084 135535.911641678 563940.466471199
 -1320.34842827556 135308.519645741 563994.557767454
 -953.538375238531 135411.198068721 563970.653671058
 -1105.49966058377 135195.614371853 564022.095068196
 -716.228036842039 135550.261896851 563937.597183496
 -790.208230033632 135421.562861187 563968.417451888
 -480.089972286261 136084.019489475 563809.284380106
 -505.844427568355 136107.279245730 563803.647254733
 -379.517583101106 137098.752185466 563563.473013992
 -387.362546232508 137360.145017866 563499.814117919
 -539.770707495851 138729.089723292 563164.228544507
 -606.980963585512 139425.759488541 562992.086236701
 -1215.41680573634 141367.277016929 562506.725071627
 -1665.07301224225 142928.629983165 562110.873638822
 -3293.56853926431 145921.462972129 561334.195511329
 -5179.75947735208 149109.170499308 560481.601272304
 -9491.28695768893 154000.331967403 559100.897178512
 -15654.8665133506 159887.117163571 557306.948565664
 -26960.1533043400 167753.273662463 554555.668359213
 -44276.5528343095 177272.165555055 550467.225353637
 -72776.4151335436 188436.803738632 543686.641731318
 -116596.831240476 200169.627651934 531730.476002990
 -183822.872459500 209277.935681274 508735.586722340
 0.000000000000000 -0.000000000000000 0.000000000000000
 0.000000000000000 -0.000000000000000 0.000000000000000
 0.000000000000000 0.000000000000000 0.000000000000000
 -0.000000000000000 -0.000000000000000 -0.000000000000000
 0.000000000000000 0.000000000000000 -0.000000000000000
 -0.000000000000000 0.000000000000000 0.000000000000000
 0.000000000000000 0.000000000000000 -0.000000000000000
 -0.000000000000000 0.000000000000000 0.000000000000000
 -0.000000000000000 0.000000000000000 0.000000000000000
 -0.000000000000000 0.000000000000000 0.000000000000000
 -0.000000000000000 -0.000000000000000 -0.000000000000000
 -0.000000000000000 0.000000000000000 0.000000000000000
 0.000000000000000 0.000000000000000 -0.000000000000000
 -0.000000000000000 0.000000000000000 0.000000000000000
 -0.000000000000000 0.000000000000000 0.000000000000000
 0.000000000000000 0.000000000000000 0.000000000000000
 0.000000000000000 -0.000000000000000 0.000000000000000
 0.000000000000000 0.000000000000000 -0.000000000000000
 0.000000000000000 0.000000000000000 -0.000000000000000
 -0.000000000000000 0.000000000000000 0.000000000000000
 0.000000000000000 0.000000000000000 -0.000000000000000
 0.000000000000000 -0.000000000000000 0.000000000000000
 0.000000000000000 -0.000000000000000 0.000000000000000
 -0.000000000000000 0.000000000000000 0.000000000000000
 0.000000000000000 0.000000000000000 -0.000000000000000
 237090.420100524 179589.441820005 497931.486334552
 167494.141192457 175818.759083077 526719.542660692
 116157.825305276 166299.573323551 543370.786418220
 79542.6650518687 155096.911620228 553188.857843606
 53811.6849135666 144227.271041650 559198.351977759
 36012.4383508703 134557.302219968 563025.254054656
 23683.4254616862 126304.419690370 565584.908678687
 15337.9364206033 119516.657863564 567345.147330513
 9594.53354421321 113939.164599675 568617.456376778
 5833.99521536067 109554.600940469 569529.414440204
 3259.15557391833 105964.952707560 570228.731916087
 1669.98551010562 103286.208403127 570726.878902774
 598.257113308191 101032.382117313 571132.296278303
 -4.48092307645829 99495.4808187150 571402.353229818
 -373.070381573719 98101.5999587789 571643.190201736
 -574.471538094465 97306.9534821195 571778.826808479
 -621.730343905164 96455.5176742981 571923.025031833
 -717.494214523701 96124.8405711563 571978.583713780
 -625.717067050543 95607.5646164617 572065.382684761
 -766.118922515376 95535.3304359539 572077.279482667
 -616.596980667106 95211.4416039017 572131.454471672
 -864.216523903316 95234.4690464400 572127.301424466
 -676.598573332385 95010.7170962630 572164.754114778
 -1026.94147144028 95003.0060653817 572165.512967844
 -779.708098398265 94835.6157645293 572193.671791155
 -1177.87283937840 94721.9771869072 572211.813626193
 -834.962739201983 94627.1235764181 572228.110390321
 -1205.02790375636 94397.3354240866 572265.402564739
 -754.027090274917 94448.5941858875 572257.716854440
 -1036.89758248311 94151.6683848377 572306.201419970
 -522.595540358952 94449.3985282288 572257.842245571
 -700.498437664714 94162.4203705901 572304.943095804
 -227.497766632686 94784.3373992468 572202.654335465
 -315.325295109351 94578.4202833765 572236.684411843
 -10.6713648945255 95549.2309646777 572075.470849940
 -25.2837140331108 95494.0588146986 572084.682622973
 5.63473506626450 96817.0817767082 571862.267197699
 44.0958659163789 97051.0950494177 571822.597494419
 -304.570918366001 98814.4459305283 571520.439277545
 -351.315145403089 99667.9044196941 571372.195163762
 -1370.43730300064 102196.717137838 570923.771538589
 -2093.47152852558 104321.369425673 570537.176052632
 -4750.47274587801 108316.911066118 569776.166389738
 -7944.72825892347 112744.469215847 568880.976966297
 -14983.5670116433 119290.726276142 567402.163675923
 -25263.0137495285 127225.694627373 565310.005893115
 -43579.9635144705 137299.039600862 561827.162483942
 -71787.9184420973 148942.758398171 555933.943455960
 -117185.733000915 160942.841532790 544761.329152859
 -186041.915432587 170074.776620474 522362.877758049
 -0.000000000000000 0.000000000000000 -0.000000000000000
 0.000000000000000 0.000000000000000 -0.000000000000000
 -0.000000000000000 0.000000000000000 0.000000000000000
 0.000000000000000 0.000000000000000 -0.000000000000000
 0.000000000000000 0.000000000000000 0.000000000000000
 -0.000000000000000 0.000000000000000 0.000000000000000
 0.000000000000000 0.000000000000000 0.000000000000000
 0.000000000000000 0.000000000000000 0.000000000000000
 -0.000000000000000 -0.000000000000000 0.000000000000000
 -0.000000000000000 -0.000000000000000 0.000000000000000
 -0.000000000000000 -0.000000000000000 -0.000000000000000
 0.000000000000000 0.000000000000000 0.000000000000000
 -0.000000000000000 -0.000000000000000 0.000000000000000
 0.000000000000000 0.000000000000000 -0.000000000000000
 0.000000000000000 0.000000000000000 0.000000000000000
 0.000000000000000 0.000000000000000 -0.000000000000000
 -0.000000000000000 -0.000000000000000 0.000000000000000
 0.000000000000000 -0.000000000000000 -0.000000000000000
 0.000000000000000 -0.000000000000000 -0.000000000000000
 0.000000000000000 0.000000000000000 -0.000000000000000
 0.000000000000000 -0.000000000000000 0.000000000000000
 0.000000000000000 -0.000000000000000 0.000000000000000
 -0.000000000000000 0.000000000000000 -0.000000000000000
 0.000000000000000 0.000000000000000 0.000000000000000
 -0.000000000000000 0.000000000000000 -0.000000000000000
 222637.401460238 150562.931946857 513968.278198761
 153383.059421528 146042.856339534 539949.183900376
 104251.153483548 135595.520962589 554207.137893616
 70208.4345036442 123814.527720144 562263.940200673
 46931.5543958824 112734.637421401 566999.409812261
 30962.6735398227 103074.568692210 569927.141076982
 20189.1882701987 95023.3310187908 571806.753404578
 12792.3062188761 88390.7897597053 573082.389528119
 7936.69615707571 83129.3292954217 573956.900354899
 4598.80005274058 78834.3410664149 574598.988605705
 2535.96401176362 75590.2011297249 575047.554885419
 1121.61172018446 72881.4389799722 575401.631766333
 345.837161494312 71003.4613887972 575637.376190486
 -161.614274407801 69323.3890341063 575842.202008200
 -391.995591365596 68349.1005959718 575958.546066623
 -478.223727993150 67324.1060494353 576079.192513243
 -541.004015519864 66932.3909239841 576124.780199441
 -439.436670301640 66317.3057869589 576195.992565527
 -532.840340973108 66271.5936256621 576201.173167398
 -352.210617156219 65900.4215099273 576243.881002215
 -571.497558099223 66010.0048519376 576231.162512049
 -348.218685072639 65768.1867450747 576258.990694299
 -711.991285175505 65875.8295788317 576246.360635545
 -432.412082301184 65696.8100170070 576267.075385520
 -895.878008069775 65689.9055108820 576267.328343856
 -518.739225163699 65567.1156297881 576281.775052454
 -997.491962012187 65397.9461481995 576300.367559646
 -490.925562775019 65392.0281558540 576301.693252550
 -900.368080568548 65084.6767952795 576335.990706613
 -285.452165131235 65303.8096685603 576311.834825413
 -578.714854274744 64931.3536022768 576353.697314847
 48.5221002921910 65479.9752375925 576291.914300809
 -127.401693450213 65121.5974567181 576332.509332498
 366.305734474228 66046.7278425620 576227.121508003
 293.986933549010 65765.6706060504 576259.308073561
 518.740637140386 67053.0591297876 576110.769010169
 552.691894785790 66939.5170362822 576123.941171184
 415.783009823032 68594.4403204959 575929.361885298
 528.204259000599 68880.5307198201 575895.123688347
 -109.876077142325 71081.2120041984 575627.873914443
 -199.214771243303 72289.7636819737 575477.323949675
 -1854.92655853648 75561.0647704811 575053.984194713
 -3217.29891318613 78618.3447092222 574637.977219471
 -7563.94913532203 83931.2084450035 573845.222096028
 -13216.8823053763 90107.7551701958 572805.295436690
 -24773.6148129637 98673.2800599479 571007.751095649
 -42124.2153508971 108952.028929403 568115.310366864
 -71786.1221383635 120937.993532396 562690.638262886
 -117400.873973789 133269.364029774 552137.945989307
 -187986.574793294 142141.725811841 529959.222469726
 -0.000000000000000 -0.000000000000000 0.000000000000000
 0.000000000000000 -0.000000000000000 -0.000000000000000
 0.000000000000000 0.000000000000000 0.000000000000000
 -0.000000000000000 0.000000000000000 0.000000000000000
 -0.000000000000000 -0.000000000000000 -0.000000000000000
 0.000000000000000 0.000000000000000 -0.000000000000000
 -0.000000000000000 -0.000000000000000 -0.000000000000000
 -0.000000000000000 0.000000000000000 0.000000000000000
 0.000000000000000 -0.000000000000000 0.000000000000000
 0.000000000000000 -0.000000000000000 0.000000000000000
 -0.000000000000000 -0.000000000000000 -0.000000000000000
 0.000000000000000 0.000000000000000 0.000000000000000
 -0.000000000000000 0.000000000000000 0.000000000000000
 -0.000000000000000 -0.000000000000000 -0.000000000000000
 0.000000000000000 -0.000000000000000 0.000000000000000
 -0.000000000000000 -0.000000000000000 0.000000000000000
 -0.000000000000000 -0.000000000000000 -0.000000000000000
 -0.000000000000000 -0.000000000000000 -0.000000000000000
 -0.000000000000000 0.000000000000000 -0.000000000000000
 -0.000000000000000 0.000000000000000 0.000000000000000
 0.000000000000000 0.000000000000000 0.000000000000000
 -0.000000000000000 0.000000000000000 -0.000000000000000
 -0.000000000000000 0.000000000000000 -0.000000000000000
 -0.000000000000000 -0.000000000000000 0.000000000000000
 -0.000000000000000 -0.000000000000000 0.000000000000000
 196484.412420816 130382.958638430 529900.141321302
 131079.276468420 123715.961747349 551282.671675289
 87455.6076498427 111746.654967616 562373.720753509
 58351.1302627637 99400.2771696066 568431.816927645
 38660.7300360944 88361.8539870431 571924.409964332
 25410.6971569283 79053.0544634909 574025.183289019
 16315.4620271925 71372.0369918556 575360.615644200
 10300.2787251995 65221.2327514315 576229.203578374
 6141.95842736751 60212.7736267181 576833.336622334
 3546.14521552554 56369.9983753239 577243.317966762
 1743.99196872444 53187.7099538260 577553.483239328
 760.307385831615 50925.4069766350 577759.487033267
 87.8473682480601 48941.8387715378 577931.387537051
 -179.897905109340 47748.3325077999 578031.196718194
 -317.559742160474 46542.8473343842 578129.451349625
 -335.471952963457 46063.6075486920 578167.822970259
 -231.504852410768 45356.6979309447 578223.759766325
 -253.106848387789 45327.6710935498 578226.026887547
 -50.0094531519814 44925.2865833235 578257.482549479
 -208.397450663162 45128.5017190604 578241.623288306
 37.7255322002179 44890.3001102264 578260.200543664
 -303.058558275653 45137.5317947084 578240.876606793
 -9.83913453604070 44970.3090467719 578253.985033765
 -503.722213095276 45112.0447385882 578242.725577621
 -119.050401289925 44982.0005579207 578253.063504906
 -680.301112760339 44931.0386884506 578256.637621024
 -153.119487053742 44878.6995082092 578261.081938664
 -676.847140139306 44628.1419056950 578280.097208951
 1.63830311504983 44761.7598992438 578270.165967464
 -408.021620033937 44374.4293295133 578299.873370242
 347.360485438045 44824.7025069916 578265.186039981
 72.5494431199911 44388.8474010629 578298.906243980
 751.080510095185 45239.3602181641 578232.510470588
 596.066408615630 44822.8972727102 578265.123092269
 1025.54356850709 46069.1883118785 578166.566093780
 990.561944066402 45728.6190283001 578193.663220897
 1052.58635470343 47322.2996859326 578065.300821975
 1163.77496139354 47198.2666350255 578075.228023558
 784.273315284648 49187.9641175448 577909.966258878
 964.973633462049 49664.2734414728 577868.954668286
 -89.4897075461692 52390.7298392908 577628.949602164
 -403.232045437168 54249.8420285951 577457.177671029
 -3078.32498374119 58510.2941247944 577032.988135622
 -5778.04295367475 62973.7286681370 576542.213300342
 -12937.3250000188 69990.5186749370 575616.150674612
 -22979.5001053450 78393.0007255734 574218.146710942
 -41915.5033578210 89145.9961456089 571573.339082106
 -70838.8710905697 101453.336798640 566647.222524770
 -118024.793921636 113814.126181427 556342.064472312
 -189114.562174589 122768.462421496 534381.499500287
 0.000000000000000 -0.000000000000000 0.000000000000000
 0.000000000000000 -0.000000000000000 0.000000000000000
 0.000000000000000 -0.000000000000000 0.000000000000000
 0.000000000000000 -0.000000000000000 -0.000000000000000
 -0.000000000000000 0.000000000000000 -0.000000000000000
 0.000000000000000 0.000000000000000 -0.000000000000000
 -0.000000000000000 -0.000000000000000 -0.000000000000000
 0.000000000000000 -0.000000000000000 0.000000000000000
 0.000000000000000 -0.000000000000000 0.000000000000000
 -0.000000000000000 -0.000000000000000 0.000000000000000
 0.000000000000000 0.000000000000000 -0.000000000000000
 0.000000000000000 0.000000000000000 0.000000000000000
 0.000000000000000 -0.000000000000000 -0.000000000000000
 0.000000000000000 -0.000000000000000 0.000000000000000
 -0.000000000000000 0.000000000000000 0.000000000000000
 -0.000000000000000 0.000000000000000 0.000000000000000
 0.000000000000000 -0.000000000000000 0.000000000000000
 0.000000000000000 -0.000000000000000 -0.000000000000000
 0.000000000000000 -0.000000000000000 -0.000000000000000
 0.000000000000000 0.000000000000000 0.000000000000000
 0.000000000000000 -0.000000000000000 0.000000000000000
 -0.000000000000000 -0.000000000000000 -0.000000000000000
 -0.000000000000000 -0.000000000000000 0.000000000000000
 0.000000000000000 0.000000000000000 0.000000000000000
 -0.000000000000000 0.000000000000000 -0.000000000000000
 149064.317958429 118339.065082884 547882.920692822
 97321.4339883893 106125.259263979 561841.586065500
 65463.3326988689 91789.8236297062 568936.886086660
 44145.3935197800 79109.3890197366 572881.217007425
 29593.1212352053 68543.9579174427 575174.732588777
 19421.2459361562 59903.9578042887 576571.184716744
 12541.2324207337 52952.4141857423 577441.563555371
 7698.83040085123 47303.5277569702 578016.525950776
 4608.45638397402 42893.6372941845 578393.376526247
 2425.13949231341 39258.5177306167 578664.745326720
 1217.67295054473 36594.7521583726 578843.106020148
 366.999496945096 34300.2439867462 578984.765407363
 53.3253995975255 32851.2553273300 579068.901064304
 -140.569053081887 31456.1179055860 579146.348418646
 -102.487349158743 30858.7025138353 579178.495781314
 6.74002379281306 30065.1537245779 579220.240052166
 82.7168484332946 30040.9311104711 579221.490982456
 310.396835260649 29630.2879186044 579242.565504008
 245.546023358421 29936.3722333400 579226.858255604
 509.569246034871 29737.4924544550 579236.930695639
 226.201799929562 30152.0262645616 579215.680161446
 518.382147256791 30037.8916197545 579221.422555304
 26.6350014086691 30371.8426285927 579204.238991670
 392.850651862067 30274.7577623197 579209.189076622
 -225.118316798083 30398.8823598087 579202.777335380
 284.447830654447 30331.4010839321 579206.288983224
 -339.338591972415 30202.6751055105 579212.986099061
 356.102079192993 30263.4368386294 579209.804459510
 -167.230795350591 29927.7699370795 579227.330691892
 673.774336781482 30268.0861531376 579209.279094154
 296.933124825728 29821.8333341850 579232.742589115
 1137.98690401390 30570.0257962658 579192.695489698
 893.266924712260 30096.9091216876 579217.902119333
 1529.96765629314 31283.5435481427 579153.692125020
 1398.78372000215 30825.7018756635 579178.573073950
 1663.54512776894 32381.7179216236 579092.960553012
 1680.35750604167 32002.6675291054 579113.983313884
 1501.18594590695 33872.3051475330 579008.128945310
 1708.89410221961 33813.9647448838 579010.963168384
 1014.00463679501 36158.4218309807 578870.918534770
 1203.12835768646 37032.3449357837 578815.305525616
 -462.098220384158 40444.6395786324 578587.951477206
 -1376.68503526009 43351.5254905351 578375.959023158
 -5726.57444282566 48943.7838141720 577902.857209671
 -10969.5844908172 55335.8430931324 577250.043469267
 -22768.8696568715 64415.2488250310 575962.025044497
 -40213.8405224747 75257.2229154320 573689.112176177
 -70804.1191111550 87789.2012251342 568928.671157595
 -117547.721292562 100499.631217641 559001.214081011
 -189798.106793263 109215.269447859 537074.206769534
 263458.398316166 363151.617207498 367573.904509364
 202151.383027278 355853.620218764 410978.125108087
 150342.174306451 345301.868183271 441093.924752940
 109197.611265926 333428.322201094 461845.683803561
 77759.8171951093 321624.126421574 476352.109403688
 54353.8176882176 310670.930759813 486753.772747112
 37258.8616614930 300925.715632074 494424.403624066
 24970.1818361292 292492.535189445 500224.556451922
 16264.9512601306 285336.930892801 504696.232628284
 10188.6206157636 279354.165826368 508190.360047692
 6013.04030297481 274407.496879389 510944.585060556
 3192.18239314618 270349.494567433 513128.600604861
 1320.31146874220 267031.738586824 514871.156081717