# ODT 1.0
# Table Start
# Title: mmArchive Data Table, Fri Apr 16 16:46:14 CEST 2021
# Columns: {Anv_SpinTEvolve:evolver:Total energy} {Anv_SpinTEvolve:evolver:Energy calc count} {Anv_SpinTEvolve:evolver:Max dm/dt} Anv_SpinTEvolve:evolver:dE/dt {Anv_SpinTEvolve:evolver:Delta E} {Anv_SpinTEvolve:evolver:average u} Oxs_UniformExchange:exchange:Energy {Oxs_UniformExchange:exchange:Max Spin Ang} {Oxs_UniformExchange:exchange:Stage Max Spin Ang} {Oxs_UniformExchange:exchange:Run Max Spin Ang} Oxs_DMExchange6Ngbr:dmi:Energy Oxs_UniaxialAnisotropy:uniaxialanisotropy:Energy Oxs_TimeDriver::Iteration {Oxs_TimeDriver::Stage iteration} Oxs_TimeDriver::Stage Oxs_TimeDriver::mx   Oxs_TimeDriver::my   Oxs_TimeDriver::mz   {Oxs_TimeDriver::Last time step} {Oxs_TimeDriver::Simulation time}
# Units:                     J                                        {}                                    deg/ns                             J/s                              J                                 m/s                                  J                                      deg                                            deg                                              deg                                     J                                       J                                    {}                            {}                          {}                   {}                   {}                   {}                          s                                 s                
                    -2.9473895648099999e-19                      91                                      16093.9232698                    1.73503919482e-08               8.7382546143799998e-22                1200                                8.0471863555000003e-19                     28.9499069676                                  28.9499069676                                    28.9499069676                          -1.8106705510400001e-18                     7.1121295900900003e-19                  14                            14                          0                     0.020130418575199999 -0.0077773324615500001  0.77798653742900004        5.0982968117800002e-14              2e-12                     
                    -2.5004704530699999e-19                      158                                     17087.061621500001               2.5223471225999999e-08             1.40975209688e-21                  1200                                8.5158340956699999e-19                     28.8269574069                                  29.134370193999999                               29.134370193999999                     -1.8562569500300001e-18                     7.5462649515700002e-19                  26                            11                          1                     0.036183055717900002 -0.0069604746065999997  0.77514154907999999        5.6540442463799997e-14              3.9999999999999999e-12       
                    -1.9549580810400001e-19                      231                                     18679.476931199999               2.7658474516100001e-08             2.9862138102800001e-21                1200                                9.0392823474200003e-19                     26.885673274399998                             28.8269574069                                    29.134370193999999                     -1.9136460761699999e-18                     8.1422203331900001e-19                  38                            11                          2                     0.048901277982299998 -0.00095383632605800005  0.77217860995800003        1.08804123195e-13                6.0000000000000003e-12       
                    -1.4040506946599999e-19                      304                                     19204.0561524                    2.6234237102199999e-08             2.3263859302800001e-21                1200                                9.5560814369500007e-19                     26.564968561099999                             26.885673274399998                               29.134370193999999                     -1.9725387376500001e-18                     8.7652552448600001e-19                  50                            11                          3                     0.058461900748399999  0.00651640532813     0.76941855888599997        8.9369912355300003e-14              7.9999999999999998e-12       
                    -9.0367391864199995e-20                      377                                     19133.303112500002               2.2530189825500001e-08             2.3668839752199999e-21                1200                                1.0086080093e-18                        27.611341446200001                             27.611341446200001                               29.134370193999999                     -2.0272810326299999e-18                     9.2830563146599996e-19                  62                            11                          4                     0.065148307581299997  0.0120029249253      0.76643886514199999        1.05614890414e-13                9.9999999999999994e-12       
                    -5.1326929228199999e-20                      450                                     18900.239205000002               1.5061822960999998e-08             1.7177658483499998e-21                1200                                1.06681339912e-18                       28.572595124700001                             28.572595124700001                               29.134370193999999                     -2.07742137853e-18                       9.5928105018400009e-19                  74                            11                          5                     0.068903831742100005  0.0127805710151      0.76230529203099995        1.13037893256e-13                1.2000000000000001e-11       
                    -3.2086863460900003e-20                      517                                     20437.493246000002               3.6075795670999999e-09             3.4637749056300002e-22                1200                                1.1339760844699999e-18                     30.291605591                                   30.291605591                                     30.291605591                           -2.1251823061900002e-18                     9.5911935826000002e-19                  86                            11                          6                     0.068603637195299993  0.007102238621       0.75633661295599997        9.5129961978300003e-14              1.4e-11                   
                    -3.1324217762400001e-20                      590                                     22912.544151300001              -2.71042060463e-09              -2.5457419578199999e-22                1200                                1.20480009588e-18                       32.967744824699999                             32.967744824699999                               32.967744824699999                     -2.1726593130900001e-18                     9.3653499944499999e-19                  98                            11                          7                     0.062621283642099998 -0.0038712487226599999  0.749217506418             7.9964382734499996e-14              1.6e-11                   
                    -3.4674934615699999e-20                      663                                     24247.041883999998              -1.8814233146200001e-09            -2.6450820697900001e-22                1200                                1.2588844323900001e-18                     35.919102918999997                             35.919102918999997                               35.919102918999997                     -2.2129924912100002e-18                     9.1943312420499991e-19                  110                           11                          8                     0.052235057405500003 -0.016299613687299999  0.74194047888900005        1.0824814308600001e-13              1.7999999999999999e-11       
                    -3.58954933427e-20                        736                                     24000.352998599999              -9.0405769923999997e-10            -1.3835844916999999e-22                1200                                1.28470023814e-18                       37.216869739700002                             37.256969077199997                               37.256969077199997                     -2.2392165621599999e-18                     9.1862083067600007e-19                  122                           11                          9                     0.041691393910700002 -0.0276379595825      0.73455939756099997        1.1420582565500001e-13              1.9999999999999999e-11       
                    -3.8368168153799999e-20                      803                                     22900.0237839                   -3.0760533563099998e-09            -3.4603849405000002e-22                1200                                1.28903807356e-18                       33.737590834499997                             37.216869739700002                               37.256969077199997                     -2.2520371627100001e-18                     9.2463092098899998e-19                  134                           11                          10                    0.034960417269899999 -0.037092833016799998  0.72669557250500005        1.02740196901e-13                2.2000000000000002e-11       
                    -4.6385922628299998e-20                      876                                     21432.359987899999              -6.2157012110799999e-09            -6.3075014830699996e-22                1200                                1.2775609807899999e-18                     29.131237044900001                             33.737590834499997                               37.256969077199997                     -2.25313009391e-18                       9.2918319049100007e-19                  146                           11                          11                    0.033488390046099999 -0.0441780064857      0.71778129236300003        9.3334671862299996e-14              2.4000000000000001e-11       
                    -5.7758761570599999e-20                      943                                     20212.496500000001              -7.1899646851999998e-09            -7.8253041807900002e-22                1200                                1.25606758269e-18                       26.913670445499999                             29.131237044900001                               37.256969077199997                     -2.2470982657800002e-18                     9.3327192151900002e-19                  158                           11                          12                    0.035992686292400003 -0.048394735809799999  0.70700849089200002        9.7106162600000005e-14              2.6000000000000001e-11       
                    -6.9115654663399997e-20                      1016                                    19393.668298799999              -5.8718681308500001e-09            -7.8643100635500003e-22                1200                                1.23064016877e-18                       24.508650122100001                             26.913670445499999                               37.256969077199997                     -2.2404123998899998e-18                     9.4065657645799994e-19                  170                           11                          13                    0.0393831320571     -0.049583027804700003  0.69422199499699999        1.2638537725200001e-13              2.8e-11                   
                    -7.8652629637700002e-20                      1089                                    18702.546565500001              -4.6136535555699997e-09            -5.1935181789000004e-22                1200                                1.20773373592e-18                       24.3669330118                                  24.545658512900001                               37.256969077199997                     -2.24170858647e-18                       9.5532222090400003e-19                  182                           11                          14                    0.040333925976200002 -0.048381225001799998  0.680495075389             1.03349563791e-13                3e-11                     
                    -8.4955601585499998e-20                      1162                                    18405.295347700001              -2.6073065218999999e-09            -3.3779034353799999e-22                1200                                1.1932599381500001e-18                     24.2651315329                                  24.4407910529                                    37.256969077199997                     -2.2575710940299998e-18                     9.7935555430000004e-19                  194                           11                          15                    0.0368590422408     -0.046199465467299999  0.66720853593499996        1.1478240747100001e-13              3.1999999999999999e-11       
                    -8.7599122746599999e-20                      1235                                    17986.784761300001              -7.5009525380699998e-10            -1.1344216761299999e-22                1200                                1.18877229929e-18                       23.809651464800002                             24.2651315329                                    37.256969077199997                     -2.2844756601500001e-18                     1.00810423812e-18                    206                           11                          16                    0.029163982152000001 -0.044842798255499999  0.65489254661399998        1.2106640924599999e-13              3.3999999999999999e-11       
                    -8.7565319546299997e-20                      1302                                    17370.872511000001               1.6881297810200001e-10            -1.97346810602e-24                  1200                                1.19210999156e-18                       23.949455234599998                             24.0172047997                                    37.256969077199997                     -2.3126152208500001e-18                     1.0329399097499999e-18                  218                           11                          17                    0.019246768254700002 -0.045911264636600002  0.64318445650599998        1.0620111968600001e-13              3.5999999999999998e-11       
                    -8.6349596833700006e-20                      1375                                    16442.446591799999               2.1823286332e-10               -6.4635704482399996e-24                1200                                1.20091855872e-18                       23.618738792399999                             23.949455234599998                               37.256969077199997                     -2.33652176976e-18                       1.04925361421e-18                    230                           11                          18                    0.0095584630761599999 -0.050288657510699997  0.63140136325499996        9.3800678279799995e-14              3.7999999999999998e-11       
                    -8.5020108957099995e-20                      1448                                    15665.718825100001               3.5275150107799998e-10             1.6459989258900001e-23                1200                                1.2125340064899999e-18                     23.020260606200001                             23.618738792399999                               37.256969077199997                     -2.3570990681299999e-18                     1.0595449526800001e-18                  242                           11                          19                    0.0018500127886100001 -0.057924874462800001  0.61889942281699994        1.1675212537e-13                 3.9999999999999998e-11       
                    -8.35049111775e-20                        1521                                    15305.759252899999               7.8326596362199996e-10             7.8824477076500001e-23                1200                                1.2254923547300001e-18                     22.8523143203                                  23.020260606200001                               37.256969077199997                     -2.3786676417399998e-18                     1.0696703758299999e-18                  254                           11                          20                   -0.0031202168859800002 -0.067868865656300001  0.60523049593599998        1.2067737270300001e-13              4.1999999999999997e-11       
                    -8.0760439486000005e-20                      1588                                    14977.799664599999               1.68018125278e-09               1.56798320651e-22                  1200                                1.24063356182e-18                       22.808350489799999                             22.902901604299998                               37.256969077199997                     -2.4057664969799998e-18                     1.08437249567e-18                    266                           11                          21                   -0.0054189589484899998 -0.078576813955099994  0.590214154888             1.04282906353e-13                4.4000000000000003e-11       
                    -7.5559835964699998e-20                      1661                                    15047.278530899999               2.9322978291299999e-09             2.4641589240699999e-22                1200                                1.25969759169e-18                       22.629457049799999                             22.813036369999999                               37.256969077199997                     -2.4408872580099999e-18                     1.1056298303499999e-18                  278                           11                          22                   -0.0057395963593999998 -0.088504045952700006  0.57393929775499997        9.2978756319999995e-14              4.6000000000000003e-11       
                    -6.7397578712899999e-20                      1734                                    15144.339879499999               4.5421157801699999e-09             5.1183475066500003e-22                1200                                1.2837100709700001e-18                     22.383008248500001                             22.629457049799999                               37.256969077199997                     -2.48385671198e-18                       1.13274906229e-18                    290                           11                          23                   -0.0051240629548300002 -0.096693504097599997  0.55671002466599995        1.18392448407e-13                4.8000000000000002e-11       
                    -5.6555957270500006e-20                      1807                                    15199.800182000001               5.7781478241100001e-09             6.4997192906799999e-22                1200                                1.31252599398e-18                       22.1346228765                                  22.383008248500001                               37.256969077199997                     -2.5322763400200002e-18                     1.16319438877e-18                    302                           11                          24                   -0.0045897320265400002 -0.10301174340499999  0.53896344296400001        1.1563477787100001e-13              5.0000000000000002e-11       
                    -4.3797869542800002e-20                      1874                                    15481.6141754                    6.4893035992399999e-09             6.5799745709200003e-22                1200                                1.3449907427000001e-18                     21.9421867957                                  22.1346228765                                    37.256969077199997                     -2.5826545805000002e-18                     1.19386596827e-18                    314                           11                          25                   -0.0048347815634400002 -0.10800046834599999  0.52117418224000001        1.04115439188e-13                5.2000000000000001e-11       
                    -2.98504914773e-20                        1947                                    15403.7514593                    6.7054526056800001e-09             5.8810186701099997e-22                1200                                1.3797359718499999e-18                     21.791291856200001                             21.9421867957                                    37.256969077199997                     -2.63183782705e-18                       1.22225136373e-18                    326                           11                          26                   -0.0061162936712699997 -0.11253893645099999  0.50376752615099996        9.1656292374800005e-14              5.4000000000000001e-11       
                    -1.5129001806e-20                         2014                                    15713.949864099999               6.7249441548100001e-09             5.8816378180500002e-22                1200                                1.41581887711e-18                       21.9633704952                                  21.9633704952                                    37.256969077199997                     -2.6778361795399999e-18                     1.24688830062e-18                    338                           11                          27                   -0.0082712271824800006 -0.117490843488       0.48706998109999999        9.4581905865499995e-14              5.6e-11                   
                     3.2427064260400001e-22                      2087                                    15789.616060300001               7.6363799399900004e-09             9.0939664178699994e-22                1200                                1.45260859239e-18                       21.994244740399999                             22.001665521                                     37.256969077199997                     -2.7196317767499999e-18                     1.267347455e-18                      350                           11                          28                   -0.010817919365099999 -0.12341861039599999  0.47131064692300001        1.23214727298e-13                5.8e-11                   
                     1.7033772691099999e-20                      2160                                    15768.325614900001               8.2750021649899995e-09             8.0172779710199999e-22                1200                                1.4889786575e-18                        21.915656081400002                             21.994244740399999                               37.256969077199997                     -2.7561635483299999e-18                     1.28421866353e-18                    362                           11                          29                   -0.013112571678299999 -0.13040268315699999  0.45666565892200001        1.0063201000299999e-13              6e-11                     
                     3.50488114303e-20                        2233                                    15084.7031752                    8.8639632429700003e-09             1.00355590667e-21                  1200                                1.52104094652e-18                       22.430342647100002                             22.445642806199999                               37.256969077199997                     -2.7851926210199999e-18                     1.2992004859300001e-18                  374                           11                          30                   -0.014578763452399999 -0.138022870558       0.44331151865099999        1.1595730503699999e-13              6.2000000000000006e-11       
                     5.2501611141899999e-20                      2306                                    14194.949926499999               7.6201061636699997e-09             9.27694685096e-22                  1200                                1.5413391716999999e-18                     22.768171735799999                             23.235458558099999                               37.256969077199997                     -2.80326283396e-18                       1.3144252734e-18                     386                           11                          31                   -0.0150106040692     -0.14556769050599999  0.43145537514900001        1.21906436573e-13                6.3999999999999999e-11       
                     6.3398768782e-20                         2373                                    16129.7120005                    2.1362205767600001e-09             2.1650535197100001e-22                1200                                1.5422106054200001e-18                     21.596669838699999                             22.7954645889                                    37.256969077199997                     -2.8074114461299999e-18                     1.32859960949e-18                    398                           11                          32                   -0.014848247515300001 -0.15239474084900001  0.42140318723199999        9.97858750631e-14                6.6000000000000005e-11       
                     6.0587504404000003e-20                      2446                                    18416.865650200001              -5.5211537468400001e-09            -4.8337694337499999e-22                1200                                1.52552873045e-18                       21.556977561499998                             21.640316896600002                               37.256969077199997                     -2.7974169596700001e-18                     1.33247573362e-18                    410                           11                          33                   -0.015051481869000001 -0.15798842710300001  0.41382708259000001        8.3810391363700001e-14              6.7999999999999998e-11       
                     4.7921003545000001e-20                      2519                                    16020.893391400001              -7.0028984728599996e-09            -8.8001129208600002e-22                1200                                1.504754218e-18                         21.5462217577                                  21.573299447699998                               37.256969077199997                     -2.77838068101e-18                       1.32154746655e-18                    422                           11                          34                   -0.015994464561499999 -0.16157490561400001  0.40991747693800001        1.21114231249e-13                7.0000000000000004e-11       
                     3.6495452335899997e-20                      2592                                    13976.234749400001              -4.76014343859e-09              -6.1461059880599999e-22                1200                                1.4867243140599999e-18                     21.4968668032                                  21.575113141199999                               37.256969077199997                     -2.75762161591e-18                       1.30739275418e-18                    434                           11                          35                   -0.016742517359400001 -0.16269362742999999  0.41048043222899999        1.2462453992899999e-13              7.1999999999999997e-11       
                     2.9293723873000002e-20                      2659                                    12398.834875099999              -2.8879500049899999e-09            -3.3250520674199999e-22                1200                                1.46855297703e-18                       22.744286944300001                             22.744286944300001                               37.256969077199997                     -2.73629217175e-18                       1.2970329186e-18                     446                           11                          36                   -0.016379874165700001 -0.16189043286099999  0.41541591279399998        1.0974930725699999e-13              7.4000000000000003e-11       
                     2.5040839166199999e-20                      2732                                    10860.0317481                   -1.8526710807799999e-09            -1.9586833530700001e-22                1200                                1.4468496586900001e-18                     24.05160566                                    24.05160566                                      37.256969077199997                     -2.7114844415899999e-18                     1.2896756220700001e-18                  458                           11                          37                   -0.014618932952200001 -0.160078384455       0.42434109861300001        9.7104613704299996e-14              7.5999999999999996e-11       
                     2.2472100187799999e-20                      2799                                    9311.1586756199995              -1.32383988208e-09              -1.52740393779e-22                  1200                                1.4199684971599999e-18                     24.485685084499998                             24.734340267499999                               37.256969077199997                     -2.6803457658799999e-18                     1.2828493689e-18                     470                           11                          38                   -0.011411753600400001 -0.15793801665500001  0.43696321701800001        9.9680351444000002e-14              7.8000000000000002e-11       