# OOMMF OVF 2.0
#
# Segment count: 1
#
# Begin: Segment
# Begin: Header
#
# Title: Oxs_TimeDriver::Magnetization
# Desc: Oxs vector field output
# Desc:  MIF source file: C:/Users/Victor H. González/Documents/GitHub/Intro-to-magnetism-in-python/domain_wall_conversion_thin_film/drive-42/domain_wall_conversion_thin_film.mif
# Desc:  Iteration: 530, State id: 3736
# Desc:  Stage: 43, Stage iteration: 11
# Desc:  Stage simulation time: 2e-12 s
# Desc:  Total simulation time: 8.8e-11 s
# meshunit: m
# meshtype: rectangular
# xbase: 1.0000000000000001e-09
# ybase: 1.0000000000000001e-09
# zbase: 1.0000000000000001e-09
# xnodes: 75
# ynodes: 25
# znodes: 1
# xstepsize: 2.0000000000000001e-09
# ystepsize: 2.0000000000000001e-09
# zstepsize: 2.0000000000000001e-09
# xmin: 0
# ymin: 0
# zmin: 0
# xmax: 1.5000000000000002e-07
# ymax: 5.0000000000000004e-08
# zmax: 2.0000000000000001e-09
# valuedim: 3
# valuelabels: Magnetization_x Magnetization_y Magnetization_z
# valueunits: A/m A/m A/m
#
# End: Header
#
# Begin: Data Text
 0.000000000000000 -0.000000000000000 -0.000000000000000
 -0.000000000000000 0.000000000000000 0.000000000000000
 0.000000000000000 0.000000000000000 -0.000000000000000
 0.000000000000000 0.000000000000000 0.000000000000000
 0.000000000000000 0.000000000000000 0.000000000000000
 0.000000000000000 -0.000000000000000 0.000000000000000
 -0.000000000000000 -0.000000000000000 0.000000000000000
 -0.000000000000000 -0.000000000000000 -0.000000000000000
 -0.000000000000000 0.000000000000000 -0.000000000000000
 -0.000000000000000 -0.000000000000000 -0.000000000000000
 0.000000000000000 -0.000000000000000 -0.000000000000000
 0.000000000000000 0.000000000000000 0.000000000000000
 0.000000000000000 0.000000000000000 -0.000000000000000
 0.000000000000000 0.000000000000000 0.000000000000000
 0.000000000000000 0.000000000000000 -0.000000000000000
 -0.000000000000000 0.000000000000000 -0.000000000000000
 0.000000000000000 -0.000000000000000 -0.000000000000000
 -0.000000000000000 -0.000000000000000 0.000000000000000
 0.000000000000000 -0.000000000000000 -0.000000000000000
 -0.000000000000000 -0.000000000000000 -0.000000000000000
 0.000000000000000 -0.000000000000000 0.000000000000000
 0.000000000000000 -0.000000000000000 0.000000000000000
 0.000000000000000 0.000000000000000 -0.000000000000000
 -0.000000000000000 -0.000000000000000 0.000000000000000
 0.000000000000000 -0.000000000000000 0.000000000000000
 250774.883359452 336579.346466352 400282.776807018
 187419.029724079 335470.962725715 434434.506531384
 136252.109460565 330016.056367557 457082.886583114
 97043.8903560808 322390.708512863 472278.217165614
 67990.2247221989 314159.010517984 482785.092409227
 46946.5395906965 306238.816707138 490320.109277879
 31966.3158884218 299096.534651162 495902.629160390
 21446.0412947656 292906.175726149 500146.018212947
 14151.2864919804 287691.213232292 503421.798216520
 9149.20660882433 283372.251151192 505980.690635457
 5760.52430625874 279851.767346496 507986.028029078
 3494.06280113757 276993.100406616 509571.009626992
 1995.20914598379 274692.997105465 510822.646797967
 1026.60623768119 272823.011043004 511826.680356800
 401.267180745278 271305.462799666 512633.577557800
 24.0042640641875 270038.592484532 513302.209222567
 -215.575932248050 268969.760566582 513863.037615834
 -331.018109609338 268029.399262398 514354.091612043
 -404.592145408077 267177.578599076 514797.025825840
 -402.842159697053 266381.513134731 515209.401290626
 -401.208762122489 265597.458469106 515614.031118511
 -344.673047720253 264835.108507063 516006.052777041
 -303.089029327180 264030.657300300 516418.164032416
 -225.184281478309 263240.469766511 516821.443410725
 -160.158182911826 262369.994701359 517263.917386247
 -88.8732630811424 261519.938077842 517694.228371637
 -13.5244077890356 260565.854928900 518175.100774112
 24.1121454786196 259637.989603655 518640.640302298
 98.3544774120206 258599.047311128 519159.438955100
 86.5904923443466 257578.490270504 519666.541016501
 161.387453271295 256461.787500394 520218.536296230
 120.333671037247 255337.796384155 520771.154402288
 233.827802271725 254168.132864916 521342.982652036
 246.092124139044 252968.078630072 521926.326824847
 485.260997566369 251837.046614127 522472.838025517
 681.926610579672 250706.665760902 523015.967938981
 1130.75099304810 249858.373457019 523420.972655476
 1578.18949395059 249154.070529579 523755.437639041
 2154.06654431436 249048.793487628 523803.454035652
 2618.23986221824 249360.441753517 523653.048218488
 2795.20117691104 250641.898654292 523039.984599028
 2395.78078230456 252699.317650852 522051.065599178
 790.062197929778 256070.755746103 520410.553172535
 -2565.41419994355 260590.437075878 518156.388317838
 -9022.94945175711 266667.557364420 514982.524201049
 -19913.1387328912 274150.678120519 510729.745160651
 -37932.3409257199 283116.554975071 504783.274099828
 -66237.1622671204 293080.029453171 496101.536654069
 -109756.206679472 303015.484931124 482219.028022836
 -173707.258761251 310585.860274658 457998.047649881
 -0.000000000000000 -0.000000000000000 -0.000000000000000
 -0.000000000000000 -0.000000000000000 -0.000000000000000
 0.000000000000000 0.000000000000000 -0.000000000000000
 0.000000000000000 -0.000000000000000 0.000000000000000
 -0.000000000000000 -0.000000000000000 -0.000000000000000
 -0.000000000000000 -0.000000000000000 -0.000000000000000
 0.000000000000000 0.000000000000000 0.000000000000000
 0.000000000000000 0.000000000000000 -0.000000000000000
 0.000000000000000 0.000000000000000 -0.000000000000000
 0.000000000000000 0.000000000000000 -0.000000000000000
 -0.000000000000000 0.000000000000000 0.000000000000000
 -0.000000000000000 -0.000000000000000 0.000000000000000
 0.000000000000000 -0.000000000000000 -0.000000000000000
 -0.000000000000000 -0.000000000000000 -0.000000000000000
 -0.000000000000000 0.000000000000000 0.000000000000000
 -0.000000000000000 0.000000000000000 0.000000000000000
 -0.000000000000000 -0.000000000000000 -0.000000000000000
 0.000000000000000 0.000000000000000 -0.000000000000000
 0.000000000000000 -0.000000000000000 0.000000000000000
 -0.000000000000000 -0.000000000000000 -0.000000000000000
 -0.000000000000000 0.000000000000000 0.000000000000000
 0.000000000000000 -0.000000000000000 -0.000000000000000
 0.000000000000000 0.000000000000000 -0.000000000000000
 0.000000000000000 -0.000000000000000 0.000000000000000
 -0.000000000000000 0.000000000000000 0.000000000000000
 248726.508071332 271330.526721792 448235.283586105
 182740.830807370 268168.915879766 480719.482974949
 131302.991336321 260347.632609372 501376.739249867
 92699.3453232507 250802.618819992 514689.107879382
 64476.9107278390 241153.235678972 523533.995939668
 44244.4815740564 232230.077703580 529633.474074319
 29943.0185846569 224376.386665253 534002.483837934
 19970.2936481093 217699.879279994 537222.439900908
 13084.8816846999 212128.424477473 539657.592738213
 8392.03847849147 207577.077950550 541517.617810988
 5226.43525210924 203865.291251818 542965.585831520
 3115.48389627439 200895.400135894 544087.614235365
 1737.30623282702 198477.673531533 544980.361918265
 830.571212417210 196550.797920436 545680.395459010
 278.568146585062 194947.117503930 546255.932486501
 -97.3875568182231 193639.616966212 546720.851309736
 -279.901788896500 192499.067405237 547123.414508192
 -436.929314979467 191507.352798324 547471.225652045
 -455.867733097069 190594.564600176 547789.653178553
 -525.193397281879 189713.286528835 548095.423340063
 -470.916535187336 188881.723419378 548382.597094167
 -497.151466609428 187980.223441393 548692.252939062
 -415.440289704938 187145.051349951 548977.738314214
 -404.623678640104 186149.240572291 549316.208129742
 -330.548093115409 185263.824099459 549615.507621467
 -274.634981702895 184145.053091985 549991.385384695
 -243.986468873951 183182.663765156 550312.685812807
 -135.163839604660 181949.886055752 550721.545515549
 -181.058655290433 180888.579815319 551071.037988898
 -18.2969971222047 179575.942662376 551500.208959289
 -151.108516521599 178387.001123948 551885.907589803
 70.9498645491167 177039.687257554 552319.603220694
 -97.3010267357374 175698.698360261 552747.643981429
 223.434110405945 174386.117648932 553163.115227806
 163.544931584498 172941.693084398 553616.423208486
 662.453978579612 171830.562701807 553961.929085660
 895.883697520123 170531.751363217 554362.804640963
 1598.24470357033 169992.823707436 554526.722080947
 2150.63677265064 169391.262013370 554708.910253829
 2792.68477996931 170037.672322453 554508.242412033
 3192.65528422099 170945.831866199 554226.785278201
 2872.76948614117 173530.499901356 553424.712855745
 1706.97667931114 176833.343942334 552383.068803515
 -1655.67017692855 182081.798917449 550675.473631477
 -7537.71611980028 188535.135474934 548450.258024505
 -18451.3174071498 196984.467538459 545212.498421056
 -35890.8404326467 206897.418633200 540652.666446728
 -64300.0123236160 218223.716507760 533520.306988144
 -108016.688847689 229774.089346282 521475.083580671
 -174363.248934584 238768.463017778 498986.050395303
 -0.000000000000000 0.000000000000000 -0.000000000000000
 -0.000000000000000 -0.000000000000000 0.000000000000000
 -0.000000000000000 -0.000000000000000 -0.000000000000000
 0.000000000000000 0.000000000000000 0.000000000000000
 0.000000000000000 -0.000000000000000 -0.000000000000000
 -0.000000000000000 0.000000000000000 0.000000000000000
 0.000000000000000 0.000000000000000 -0.000000000000000
 -0.000000000000000 0.000000000000000 0.000000000000000
 0.000000000000000 0.000000000000000 0.000000000000000
 0.000000000000000 -0.000000000000000 -0.000000000000000
 -0.000000000000000 0.000000000000000 0.000000000000000
 -0.000000000000000 0.000000000000000 0.000000000000000
 -0.000000000000000 0.000000000000000 -0.000000000000000
 -0.000000000000000 -0.000000000000000 0.000000000000000
 -0.000000000000000 0.000000000000000 0.000000000000000
 0.000000000000000 0.000000000000000 -0.000000000000000
 -0.000000000000000 0.000000000000000 -0.000000000000000
 -0.000000000000000 0.000000000000000 0.000000000000000
 0.000000000000000 -0.000000000000000 0.000000000000000
 0.000000000000000 0.000000000000000 -0.000000000000000
 -0.000000000000000 -0.000000000000000 0.000000000000000
 -0.000000000000000 0.000000000000000 -0.000000000000000
 -0.000000000000000 -0.000000000000000 -0.000000000000000
 -0.000000000000000 0.000000000000000 -0.000000000000000
 0.000000000000000 -0.000000000000000 0.000000000000000
 245081.291375028 218511.773432965 478108.528985972
 176729.901641759 214956.726504240 508881.270628303
 124951.645271788 206114.734100900 527545.071752537
 87015.6620130858 195552.363849174 539061.728893292
 59831.6233721257 185117.329299448 546398.893884034
 40629.8176304220 175646.258754764 551269.090104617
 27242.6751476773 167467.394413709 554628.261504119
 17986.0100845179 160584.550721079 557036.000192940
 11666.3800142400 154938.145139966 558800.560806761
 7381.88144966942 150321.222828167 560133.053652172
 4517.19725557780 146632.411385624 561140.384271344
 2626.81861126300 143629.046564076 561928.640315724
 1380.42183688854 141257.991663116 562533.798297361
 602.951115650457 139287.383176806 563026.341601980
 71.3190696294273 137717.621625561 563412.683214879
 -206.911205352496 136348.439376815 563745.563412486
 -451.238557406266 135202.789005622 564021.278170306
 -511.366309031628 134141.254433761 564274.633811795
 -655.816893438298 133155.658435747 564507.874640156
 -621.996026809872 132214.021475688 564729.196736072
 -733.099399506720 131208.859487544 564963.448160364
 -663.929326048743 130273.536401380 565179.940294529
 -745.888708765225 129133.913394718 565441.310890352
 -679.014550289168 128139.050845668 565667.678577813
 -703.010046035592 126807.951070232 565967.533805823
 -673.404668964339 125717.538823350 566210.779620409
 -599.582609105555 124198.636758603 566545.972651822
 -645.647983147846 122993.715740924 566808.723492258
 -448.990226322634 121347.521876605 567163.624840472
 -607.510848255365 120007.444252458 567448.538860188
 -293.779488602011 118323.087454501 567802.395793507
 -565.699142490384 116805.165806453 568116.390562187
 -146.307426109247 115166.295738504 568451.143828569
 -428.277379814590 113432.419821735 568799.527700113
 138.116498607188 111945.058910546 569094.266979862
 89.0227700193382 110094.674374435 569455.138487075
 893.161335213012 109018.634544497 569661.425396598
 1330.84123603018 107488.518266214 569951.267480421
 2328.94629649151 107380.013896024 569968.515468037
 3163.80244894273 107026.038656859 570031.067051160
 3814.42598918839 108706.479624464 569709.005933756
 4138.00411153357 110611.593058706 569339.926935560
 2957.31611246448 114928.862441517 568491.522240491
 492.998191240003 120063.035588975 567436.890268816
 -5675.87943840913 127665.331062179 565746.716859572
 -15735.8398195497 136625.458473576 563458.842722393
 -33707.4944943698 147702.371840054 559864.103303413
 -61846.4814044440 159985.455239271 554057.458076121
 -106874.668491377 172425.259141494 543366.667403188
 -175361.247414303 181756.796232985 522123.452766126
 0.000000000000000 -0.000000000000000 0.000000000000000
 0.000000000000000 -0.000000000000000 0.000000000000000
 0.000000000000000 0.000000000000000 0.000000000000000
 -0.000000000000000 -0.000000000000000 -0.000000000000000
 0.000000000000000 0.000000000000000 -0.000000000000000
 -0.000000000000000 0.000000000000000 0.000000000000000
 0.000000000000000 0.000000000000000 -0.000000000000000
 -0.000000000000000 0.000000000000000 0.000000000000000
 -0.000000000000000 0.000000000000000 0.000000000000000
 -0.000000000000000 0.000000000000000 0.000000000000000
 -0.000000000000000 -0.000000000000000 -0.000000000000000
 -0.000000000000000 0.000000000000000 0.000000000000000
 0.000000000000000 0.000000000000000 -0.000000000000000
 -0.000000000000000 0.000000000000000 0.000000000000000
 -0.000000000000000 0.000000000000000 0.000000000000000
 0.000000000000000 0.000000000000000 0.000000000000000
 0.000000000000000 -0.000000000000000 0.000000000000000
 0.000000000000000 0.000000000000000 -0.000000000000000
 0.000000000000000 0.000000000000000 -0.000000000000000
 -0.000000000000000 0.000000000000000 0.000000000000000
 0.000000000000000 0.000000000000000 -0.000000000000000
 0.000000000000000 -0.000000000000000 0.000000000000000
 0.000000000000000 -0.000000000000000 0.000000000000000
 -0.000000000000000 0.000000000000000 0.000000000000000
 0.000000000000000 0.000000000000000 -0.000000000000000
 237461.608914907 178659.484644537 498089.121380996
 167832.005159406 174897.283997556 526918.739555211
 116490.052878708 165369.210595385 543583.564658991
 79860.4743109284 154156.933529439 553405.768390278
 54172.6067568854 143272.066471861 559409.012839485
 36374.7616846891 133582.528376963 563234.040896678
 24117.8242262664 125316.648770291 565786.238870807
 15766.9789435086 118486.042598571 567549.522142628
 10097.3846947483 112887.793985064 568818.414603036
 6304.66302543980 108408.406226583 569743.686830796
 3780.36523076372 104765.597617811 570447.086410742
 2119.26647582077 101898.613806907 570974.764077919
 1056.60436249821 99521.9024473321 571396.775035076
 341.504205278015 97651.8244749608 571720.215272811
 -65.3708432723971 96020.4358926901 571996.566089020
 -402.312722261681 94692.9614204820 572217.686900618
 -526.510046005415 93447.3919285840 572422.315890040
 -744.607685143017 92337.9927950594 572602.078799907
 -752.525147279925 91242.7724339267 572777.609709452
 -954.035122085069 90119.6718350821 572955.089483742
 -921.153482363642 89025.5503742931 573126.166613265
 -1122.16108853738 87724.1214110110 573326.450878692
 -1089.05731399738 86537.3806460721 573506.840155446
 -1249.96107801027 84953.5638165583 573743.261042925
 -1244.73767492792 83618.6626256163 573939.343388153
 -1290.50267241938 81723.8493184581 574212.109812591
 -1340.01177701951 80219.7295949243 574424.058820794
 -1196.76971002224 78080.1704702060 574719.109410505
 -1340.68328615109 76410.8197587755 574943.118223114
 -987.802005021309 74170.4457007609 575237.141735258
 -1274.70478493233 72324.3086531713 575471.606167978
 -759.342356031028 70130.8501790773 575743.942436520
 -1174.81862651544 68039.2144066060 575994.171067838
 -532.231899446652 65986.9205671390 576233.844062696
 -872.020442462169 63597.3042684371 576502.057646055
 -14.1596047478034 61823.0299286433 576695.684715905
 130.729416131835 59363.4368739154 576954.040866633
 1349.76330602792 58301.3729176968 577060.766345218
 2283.47804873323 56566.8397008096 577230.437844596
 3682.47557349637 57098.4998645854 577170.859180248
 4999.91416204519 57394.4300111807 577131.597005452
 5527.69528291835 60603.8962984854 576798.589057135
 5528.74706796663 64239.4625414780 576405.000332441
 2771.82860903050 70939.8393102857 575638.650687037
 -2149.56875480495 78717.0200792804 574629.454608800
 -12990.1778075779 89197.1839297034 572952.980321717
 -30174.0297967179 101081.880166735 570326.206155551
 -59556.4993583500 114472.260421142 565463.637184791
 -105064.447271162 127632.118718915 555941.997146218
 -175709.382252589 136913.180870565 535519.368363384
 -0.000000000000000 0.000000000000000 -0.000000000000000
 0.000000000000000 0.000000000000000 -0.000000000000000
 -0.000000000000000 0.000000000000000 0.000000000000000
 0.000000000000000 0.000000000000000 -0.000000000000000
 0.000000000000000 0.000000000000000 0.000000000000000
 -0.000000000000000 0.000000000000000 0.000000000000000
 0.000000000000000 0.000000000000000 0.000000000000000
 0.000000000000000 0.000000000000000 0.000000000000000
 -0.000000000000000 -0.000000000000000 0.000000000000000
 -0.000000000000000 -0.000000000000000 0.000000000000000
 -0.000000000000000 -0.000000000000000 -0.000000000000000
 0.000000000000000 0.000000000000000 0.000000000000000
 -0.000000000000000 -0.000000000000000 0.000000000000000
 0.000000000000000 0.000000000000000 -0.000000000000000
 0.000000000000000 0.000000000000000 0.000000000000000
 0.000000000000000 0.000000000000000 -0.000000000000000
 -0.000000000000000 -0.000000000000000 0.000000000000000
 0.000000000000000 -0.000000000000000 -0.000000000000000
 0.000000000000000 -0.000000000000000 -0.000000000000000
 0.000000000000000 0.000000000000000 -0.000000000000000
 0.000000000000000 -0.000000000000000 0.000000000000000
 0.000000000000000 -0.000000000000000 0.000000000000000
 -0.000000000000000 0.000000000000000 -0.000000000000000
 0.000000000000000 0.000000000000000 0.000000000000000
 -0.000000000000000 0.000000000000000 -0.000000000000000
 222957.805288766 149803.412033559 514051.315341106
 153708.232439212 145277.010483915 540063.301387226
 104581.199349632 134819.578214092 554334.244001547
 70600.2393138346 123020.334986643 562389.192097967
 47347.2743259279 111930.131195714 567124.220382463
 31476.1486286543 102264.655440575 570044.903770859
 20714.4642596672 94193.9108140895 571925.185785679
 13415.5139570707 87559.8917460985 573195.681545735
 8530.65877257115 82234.1610678449 574077.321111341
 5257.71016091802 77910.2061263082 574719.371750440
 3104.84277792463 74503.0717346009 575186.623847802
 1697.36933691926 71689.2468440297 575549.972482208
 765.304536039460 69482.8151892260 575822.501038599
 195.405883314165 67562.7597969322 576051.417240825
 -243.712489387703 66023.4113570528 576229.858439321
 -456.401689749105 64565.8443030583 576394.867644509
 -746.196530996419 63308.1537189060 576534.058719379
 -819.203367840898 62023.8067181860 576673.543962290
 -1109.36481785079 60763.7241355207 576807.194076914
 -1140.89696243641 59461.1021391971 576942.870383639
 -1474.03385664844 57980.8887955122 577092.751434873
 -1512.26112137579 56529.4283163307 577236.638477262
 -1855.49238490388 54664.5304158814 577415.228637434
 -1923.38937028750 52973.9033752816 577572.563522988
 -2178.10640225480 50632.9849450917 577781.582164100
 -2280.59343998566 48658.5023477250 577950.818878941
 -2311.26927418321 45872.0466281806 578178.530708711
 -2457.80514483391 43632.0283276831 578351.281919460
 -2170.07210990291 40578.9036248265 578574.665335119
 -2415.25602728402 38129.1715668005 578740.298246072
 -1841.57083448012 35063.4677700674 578936.232969400
 -2266.81557042940 32396.3867597978 579090.092880270
 -1533.17527113070 29489.6065999098 579247.798853108
 -2078.36956229771 26473.8352513235 579391.764203676
 -1198.93346512385 23776.8826473825 579511.192653014
 -1449.73723401379 20371.2425764507 579640.328771078
 -176.052381714837 18104.5482866950 579717.340034687
 525.769411727372 14857.9769062911 579809.420489852
 2417.59488129208 13847.3590954471 579829.635221477
 4286.19711158724 12198.2448390764 579855.871175904
 6242.84196402652 13856.5134433786 579800.848532844
 8138.92272166107 15644.2033528290 579731.849080578
 8173.37626848505 21229.9885718779 579553.693375869
 7109.38758354877 27686.3356739361 579295.195410023
 1435.10606830654 37588.0047458221 578778.958126330
 -8063.81778557125 48811.8433194647 577886.129609006
 -26628.8435339410 62399.3976677660 576018.419725224
 -55596.8101789635 76837.5087680357 572193.142168138
 -102844.271316413 90692.3215748856 563558.301034377
 -174510.752891722 100122.611976902 543986.635585918
 -0.000000000000000 -0.000000000000000 0.000000000000000
 0.000000000000000 -0.000000000000000 -0.000000000000000
 0.000000000000000 0.000000000000000 0.000000000000000
 -0.000000000000000 0.000000000000000 0.000000000000000
 -0.000000000000000 -0.000000000000000 -0.000000000000000
 0.000000000000000 0.000000000000000 -0.000000000000000
 -0.000000000000000 -0.000000000000000 -0.000000000000000
 -0.000000000000000 0.000000000000000 0.000000000000000
 0.000000000000000 -0.000000000000000 0.000000000000000
 0.000000000000000 -0.000000000000000 0.000000000000000
 -0.000000000000000 -0.000000000000000 -0.000000000000000
 0.000000000000000 0.000000000000000 0.000000000000000
 -0.000000000000000 0.000000000000000 0.000000000000000
 -0.000000000000000 -0.000000000000000 -0.000000000000000
 0.000000000000000 -0.000000000000000 0.000000000000000
 -0.000000000000000 -0.000000000000000 0.000000000000000
 -0.000000000000000 -0.000000000000000 -0.000000000000000
 -0.000000000000000 -0.000000000000000 -0.000000000000000
 -0.000000000000000 0.000000000000000 -0.000000000000000
 -0.000000000000000 0.000000000000000 0.000000000000000
 0.000000000000000 0.000000000000000 0.000000000000000
 -0.000000000000000 0.000000000000000 -0.000000000000000
 -0.000000000000000 0.000000000000000 -0.000000000000000
 -0.000000000000000 -0.000000000000000 0.000000000000000
 -0.000000000000000 -0.000000000000000 0.000000000000000
 196757.186703711 129792.008523547 529944.000818826
 131382.534473340 123112.051611171 551345.674131438
 87851.0829437867 111117.262073601 562436.788710403
 58816.6880397025 98765.5630583628 568494.468541080
 39268.7650956907 87728.4914511880 571980.485572330
 26075.3396608915 78429.5577184667 574080.901213109
 17121.7854684516 70773.9339354972 575411.065880442
 11106.3069447554 64607.8810134861 576283.325853695
 7043.22723705419 59610.0419250934 576885.634984765
 4358.15839367922 55657.1857082150 577306.923684843
 2568.66022152815 52405.2689880146 577621.926321154
 1392.61013499460 49848.0300564771 577852.260129266
 631.704296444282 47632.6197863626 578040.426338824
 78.5951281919655 45862.1000813416 578183.934054669
 -245.340946354267 44180.0215159479 578314.849806461
 -607.366787981156 42752.7941836264 578421.844068044
 -768.901744985945 41257.6512903276 578530.219608373
 -1143.79274283813 39839.7637081765 578628.970036792
 -1269.36799615783 38292.5682891849 578733.157784060
 -1737.64736785695 36614.5972972332 578840.523673306
 -1889.39653117007 34840.8327336185 578949.519867817
 -2444.29517858232 32672.9356408918 579073.833546022
 -2648.98053669430 30533.6297747171 579189.675628716
 -3193.45871055144 27698.1808748784 579329.450828876
 -3438.58910492191 25095.2624932395 579446.635942744
 -3786.54077288844 21534.3554061179 579587.727308143
 -4028.66537901606 18458.7665177828 579692.197458190
 -3975.30053791355 14325.5762130865 579809.429771365
 -4208.56989370126 10890.9006092323 579882.467594400
 -3686.04721319994 6545.41793242976 579951.351890857
 -4023.98556670529 2891.34464963424 579978.833808853
 -3197.96618697080 -1308.93762826032 579989.706541894
 -3777.12093101209 -5234.00339671971 579964.083858575
 -2854.19179652877 -9193.64719375784 579920.106946177
 -3464.05232319311 -13644.0103845216 579829.148389531
 -2279.48060712539 -17396.2191342691 579734.573341969
 -2094.40243403110 -22271.1432190136 579568.468481647
 -61.6520953327906 -25286.5530280132 579448.519227533
 1850.60471916423 -29309.2230398489 579256.026906042
 4901.82588575692 -29952.6450766836 579205.327285494
 8238.18414909404 -30686.5365574938 579129.060569431
 10830.0038625910 -26885.2179708123 579275.319749598
 13022.6874281028 -22176.2056504249 579429.569072118
 11654.9872467214 -12982.0986099655 579737.549575633
 7944.72363255649 -2425.66556651087 579940.512046677
 -2924.54625690228 11388.4352238052 579880.807211572
 -20388.9734200114 26374.9373935196 579041.149177126
 -51224.4734473565 42385.2164009162 576176.662795960
 -98534.2498371773 57229.9556784199 568696.521689795
 -171782.152650474 66640.7995121201 549954.448905685
 0.000000000000000 -0.000000000000000 0.000000000000000
 0.000000000000000 -0.000000000000000 0.000000000000000
 0.000000000000000 -0.000000000000000 0.000000000000000
 0.000000000000000 -0.000000000000000 -0.000000000000000
 -0.000000000000000 0.000000000000000 -0.000000000000000
 0.000000000000000 0.000000000000000 -0.000000000000000
 -0.000000000000000 -0.000000000000000 -0.000000000000000
 0.000000000000000 -0.000000000000000 0.000000000000000
 0.000000000000000 -0.000000000000000 0.000000000000000
 -0.000000000000000 -0.000000000000000 0.000000000000000
 0.000000000000000 0.000000000000000 -0.000000000000000
 0.000000000000000 0.000000000000000 0.000000000000000
 0.000000000000000 -0.000000000000000 -0.000000000000000
 0.000000000000000 -0.000000000000000 0.000000000000000
 -0.000000000000000 0.000000000000000 0.000000000000000
 -0.000000000000000 0.000000000000000 0.000000000000000
 0.000000000000000 -0.000000000000000 0.000000000000000
 0.000000000000000 -0.000000000000000 -0.000000000000000
 0.000000000000000 -0.000000000000000 -0.000000000000000
 0.000000000000000 0.000000000000000 0.000000000000000
 0.000000000000000 -0.000000000000000 0.000000000000000
 -0.000000000000000 -0.000000000000000 -0.000000000000000
 -0.000000000000000 -0.000000000000000 0.000000000000000
 0.000000000000000 0.000000000000000 0.000000000000000
 -0.000000000000000 0.000000000000000 -0.000000000000000
 149267.206127747 117916.652203806 547918.757032339
 97655.6323603850 105660.417526930 561871.207338771
 65942.7241371379 91311.7377048220 568958.455153537
 44839.5538557937 78634.2433035338 572892.721362468
 30424.5103682006 68109.2908124631 575182.991467827
 20467.9206194038 59529.6535654691 576573.745996029
 13654.3083174134 52630.9859230109 577445.702369621
 8966.08030304749 47055.5210412610 578018.500866136
 5820.21945723845 42625.4060975097 578402.281980710
 3675.88163856126 38991.0961462944 578676.232720413
 2259.92553109265 36113.0762707232 578870.225921889
 1300.70268527839 33630.7026610839 579022.697319411
 627.279633992447 31635.5707174951 579136.250968318
 176.737383394011 29740.9224911746 579236.951767816
 -259.895336120438 28136.8935576080 579317.052809032
 -530.424916225426 26429.0447867629 579397.293953870
 -987.687843798590 24837.4313315906 579467.105604427
 -1236.04210254210 23026.8601523144 579541.401378233
 -1838.01174244935 21130.5157777482 579612.045264590
 -2145.71327169129 18993.4254671855 579684.953835769
 -2926.82245800705 16499.8411022317 579757.870971926
 -3335.78282534603 13839.6696551306 579825.263417160
 -4231.14429522360 10475.2952067094 579889.959913331
 -4730.60544178312 7114.91127006077 579937.065042211
 -5541.16468858708 2687.49189729380 579967.303286311
 -6040.96759394612 -1469.49312220222 579966.677750104
 -6452.18327180360 -6924.79604104029 579922.767729304
 -6830.32228989288 -11779.4221060523 579840.143412185
 -6583.66389617963 -17873.2983907533 579687.157503370
 -6857.24394764653 -23121.6293173083 579498.376583710
 -6017.86546032522 -29243.8504942534 579231.026882687
 -6447.67274587161 -34661.9359661122 578927.437345340
 -5409.68761227629 -40446.7438129062 578562.698585789
 -6163.90306366321 -46262.6685550425 578119.167470849
 -5094.35886672036 -51865.0002245073 577653.935552636
 -5546.75453884582 -58487.3009169524 577016.870763356
 -3761.97194569836 -63926.3428141520 576454.048699016
 -2391.70175823609 -70709.3027061622 575668.719207070
 1171.72363959533 -74569.8706002139 575185.154069870
 5327.04285779460 -78804.4492442992 574596.798976198
 10227.0246289914 -78078.0822866945 574629.638144145
 15406.2848011961 -76169.2531907836 574770.294341125
 18276.8732412688 -68467.0480775151 575654.600634855
 19655.6603199045 -58874.2963103584 576669.291926792
 15050.3721245912 -44699.8565969103 578079.068224345
 5964.22589422366 -29053.7210718835 579241.149523547
 -13538.4957450390 -11278.9740431923 579732.260511259
 -43786.2005542659 6554.44685192000 578307.710364895
 -93038.4601206635 22435.5463384851 572049.378287285
 -166675.505003599 32253.8721725430 554598.019976336
 254541.819764267 364059.183913623 372920.061942559
 192912.355840315 356757.771662966 414618.759009062
 141363.678221516 346263.668628873 443303.262188942
 100776.306414648 334506.039160242 462979.314689920
 70009.8229211627 322843.689408769 476729.039291170
 47291.0891291651 312029.986082080 486621.866210915
 30853.1991452778 302404.772563567 493962.988120850
 19172.6962415799 294064.268924351 499558.418466564
 11021.5639060172 286972.185702432 503910.200097433
 5445.61954588039 281025.069132670 507341.360177484
 1719.64892134195 276088.978441340 510070.503745124
 -699.139186928040 272019.254291463 512254.855027372
 -2212.55135396896 268670.194375987 514015.010744312