# OOMMF OVF 2.0
#
# Segment count: 1
#
# Begin: Segment
# Begin: Header
#
# Title: Oxs_TimeDriver::Magnetization
# Desc: Oxs vector field output
# Desc:  MIF source file: C:/Users/Victor H. González/Documents/GitHub/Intro-to-magnetism-in-python/domain_wall_conversion_thin_film/drive-42/domain_wall_conversion_thin_film.mif
# Desc:  Iteration: 410, State id: 2897
# Desc:  Stage: 33, Stage iteration: 11
# Desc:  Stage simulation time: 2e-12 s
# Desc:  Total simulation time: 6.8e-11 s
# meshunit: m
# meshtype: rectangular
# xbase: 1.0000000000000001e-09
# ybase: 1.0000000000000001e-09
# zbase: 1.0000000000000001e-09
# xnodes: 75
# ynodes: 25
# znodes: 1
# xstepsize: 2.0000000000000001e-09
# ystepsize: 2.0000000000000001e-09
# zstepsize: 2.0000000000000001e-09
# xmin: 0
# ymin: 0
# zmin: 0
# xmax: 1.5000000000000002e-07
# ymax: 5.0000000000000004e-08
# zmax: 2.0000000000000001e-09
# valuedim: 3
# valuelabels: Magnetization_x Magnetization_y Magnetization_z
# valueunits: A/m A/m A/m
#
# End: Header
#
# Begin: Data Text
 0.000000000000000 -0.000000000000000 -0.000000000000000
 -0.000000000000000 0.000000000000000 0.000000000000000
 0.000000000000000 0.000000000000000 -0.000000000000000
 0.000000000000000 0.000000000000000 0.000000000000000
 0.000000000000000 0.000000000000000 0.000000000000000
 0.000000000000000 -0.000000000000000 0.000000000000000
 -0.000000000000000 -0.000000000000000 0.000000000000000
 -0.000000000000000 -0.000000000000000 -0.000000000000000
 -0.000000000000000 0.000000000000000 -0.000000000000000
 -0.000000000000000 -0.000000000000000 -0.000000000000000
 0.000000000000000 -0.000000000000000 -0.000000000000000
 0.000000000000000 0.000000000000000 0.000000000000000
 0.000000000000000 0.000000000000000 -0.000000000000000
 0.000000000000000 0.000000000000000 0.000000000000000
 0.000000000000000 0.000000000000000 -0.000000000000000
 -0.000000000000000 0.000000000000000 -0.000000000000000
 0.000000000000000 -0.000000000000000 -0.000000000000000
 -0.000000000000000 -0.000000000000000 0.000000000000000
 0.000000000000000 -0.000000000000000 -0.000000000000000
 -0.000000000000000 -0.000000000000000 -0.000000000000000
 0.000000000000000 -0.000000000000000 0.000000000000000
 0.000000000000000 -0.000000000000000 0.000000000000000
 0.000000000000000 0.000000000000000 -0.000000000000000
 -0.000000000000000 -0.000000000000000 0.000000000000000
 0.000000000000000 -0.000000000000000 0.000000000000000
 252366.233563998 330439.035625412 404377.704493793
 188428.347579784 329464.705072781 438574.698243820
 136783.160743802 324119.620002928 461125.621567586
 97168.2780998439 316573.944425248 476171.464329974
 67750.6578134301 308384.558472875 486527.298783262
 46367.7905652215 300461.015566030 493936.439355440
 31058.7685165311 293262.329334667 499432.236736318
 20217.2194432060 286954.052084932 503635.419753241
 12602.2714446963 281550.720491530 506922.454173353
 7287.93310510626 276964.906343845 509546.196811437
 3591.27370535307 273087.663342046 511673.949780086
 1035.17959745164 269778.333763840 513437.999211986
 -737.554665796376 266919.720625209 514930.401854926
 -1945.38306530082 264390.144906198 516230.633303767
 -2775.94232972082 262096.006688291 517395.378238184
 -3306.18489256089 259961.809171609 518467.864880438
 -3641.08383567921 257918.233875495 519485.252093884
 -3787.36830048225 255949.017032693 520457.257151204
 -3807.45820837582 253999.577488337 521411.275192375
 -3688.67273755845 252118.147679626 522324.452140650
 -3460.50868378742 250254.427470160 523221.507978439
 -3134.42548516938 248513.540229143 524052.665005777
 -2697.78650556142 246844.369228686 524843.385523779
 -2222.53803346650 245381.283626032 525531.241669542
 -1637.62681508560 244078.561005197 526139.690800881
 -1094.61869199463 243051.532276729 526616.325675395
 -455.289690963503 242281.057668113 526972.183143017
 59.7186658269823 241805.787148188 527190.627510890
 641.877135679719 241665.732837732 527254.456183867
 1046.59637540908 241777.078836823 527202.758704049
 1473.94616907327 242269.106133868 526975.813198089
 1725.45319313858 242923.737291599 526673.599748042
 1941.53378703747 243967.996763262 526189.934341084
 2040.93872571214 245083.848523944 525670.754143514
 2034.87459430685 246570.673011266 524975.011306402
 2000.82252015167 248086.188963161 524260.659934519
 1775.11541952179 249948.562011403 523376.122223473
 1578.64955685543 251887.618546823 522446.299143163
 1059.48359644826 254181.861514880 521335.265228950
 491.311891725575 256720.921968362 520090.498698389
 -673.641422601946 259707.745804980 518605.276656658
 -2292.66406792604 263241.858751525 516815.699734939
 -5184.79279060475 267447.596907554 514630.839371382
 -9659.50241671692 272617.512422784 511846.056870105
 -17082.9860671029 278793.802432264 508313.080013087
 -28782.8405805764 286318.063153861 503580.693434463
 -47328.8899079907 295010.565900476 497120.450381151
 -75965.9874038713 304770.209140420 487590.287411737
 -119297.786614110 314449.608305966 472535.164771045
 -182294.013673460 321934.106715112 446684.814508355
 -0.000000000000000 -0.000000000000000 -0.000000000000000
 -0.000000000000000 -0.000000000000000 -0.000000000000000
 0.000000000000000 0.000000000000000 -0.000000000000000
 0.000000000000000 -0.000000000000000 0.000000000000000
 -0.000000000000000 -0.000000000000000 -0.000000000000000
 -0.000000000000000 -0.000000000000000 -0.000000000000000
 0.000000000000000 0.000000000000000 0.000000000000000
 0.000000000000000 0.000000000000000 -0.000000000000000
 0.000000000000000 0.000000000000000 -0.000000000000000
 0.000000000000000 0.000000000000000 -0.000000000000000
 -0.000000000000000 0.000000000000000 0.000000000000000
 -0.000000000000000 -0.000000000000000 0.000000000000000
 0.000000000000000 -0.000000000000000 -0.000000000000000
 -0.000000000000000 -0.000000000000000 -0.000000000000000
 -0.000000000000000 0.000000000000000 0.000000000000000
 -0.000000000000000 0.000000000000000 0.000000000000000
 -0.000000000000000 -0.000000000000000 -0.000000000000000
 0.000000000000000 0.000000000000000 -0.000000000000000
 0.000000000000000 -0.000000000000000 0.000000000000000
 -0.000000000000000 -0.000000000000000 -0.000000000000000
 -0.000000000000000 0.000000000000000 0.000000000000000
 0.000000000000000 -0.000000000000000 -0.000000000000000
 0.000000000000000 0.000000000000000 -0.000000000000000
 0.000000000000000 -0.000000000000000 0.000000000000000
 -0.000000000000000 0.000000000000000 0.000000000000000
 250037.484273399 265051.544729287 451252.628906301
 183552.437184808 262024.575126071 483788.822559511
 131665.692062454 254307.464958348 504372.737962881
 92658.2993522233 244832.174384563 517563.180633322
 64064.6899506775 235208.763066256 526281.819255012
 43474.3667845389 226260.746283972 532274.416183704
 28825.5916769368 218320.772842410 536567.913138651
 18500.8532554440 211487.559277027 539750.618989795
 11270.2819443309 205679.094649041 542189.165116057
 6223.06830849371 200796.219918788 544097.556957531
 2719.12014907985 196654.577284385 545636.860575525
 265.832798500981 193132.435399882 546900.166145005
 -1421.00338459880 190053.579381254 547975.928042240
 -2624.77254296452 187316.470073983 548913.153976219
 -3419.34374035938 184801.383660116 549760.635809524
 -3997.13971712816 182417.981705817 550552.179928894
 -4312.42842274432 180138.038145610 551300.000157944
 -4515.66181190979 177853.695372606 552039.556409420
 -4516.74353532957 175658.620542763 552741.936220557
 -4419.23540890875 173397.997708320 553456.054939456
 -4172.40528522630 171299.430268426 554111.086537572
 -3787.10323994351 169149.852916253 554773.814367134
 -3345.19431746249 167280.333661850 555343.226883121
 -2699.17599269903 165446.324148731 555895.878986914
 -2141.64156476642 163991.507206156 556329.218121484
 -1316.53447802983 162717.371231867 556705.778518922
 -748.574275306977 161836.313890580 556963.595886539
 117.743829287098 161315.459482059 557115.166431935
 597.151766279010 161080.857909493 557182.735397383
 1343.79643861794 161387.218320994 557092.775014848
 1680.25705802033 161773.658689373 556979.766320531
 2171.96390333632 162844.924381659 556665.800257151
 2371.18153873229 163767.149409808 556394.372969655
 2535.29779753447 165445.621088297 555896.859793060
 2640.45193571471 166823.373220946 555484.464373901
 2469.47826176773 168938.721140172 554845.573269390
 2502.21303323535 170762.485054407 554286.850491674
 2002.19515921280 173235.053066079 553521.099510883
 1863.64656188981 175625.683777990 552767.714342115
 913.691544484393 178574.428274748 551824.554305178
 197.154362813624 181845.832187117 550755.893700950
 -1765.02639889453 185685.787535985 549470.356788200
 -4193.90085405362 190406.939619957 547839.035246840
 -8859.41729115059 195894.301322471 545845.155181066
 -15831.0823995776 202875.826764654 543130.532878254
 -27502.4785134010 210953.105444282 539576.130846272
 -45656.6588902742 220868.852935222 534352.336293252
 -74246.3200648280 231764.476014021 526471.947604786
 -117966.237118710 243246.243390222 513142.506499508
 -183376.138556155 252209.995495750 489043.259825005
 -0.000000000000000 0.000000000000000 -0.000000000000000
 -0.000000000000000 -0.000000000000000 0.000000000000000
 -0.000000000000000 -0.000000000000000 -0.000000000000000
 0.000000000000000 0.000000000000000 0.000000000000000
 0.000000000000000 -0.000000000000000 -0.000000000000000
 -0.000000000000000 0.000000000000000 0.000000000000000
 0.000000000000000 0.000000000000000 -0.000000000000000
 -0.000000000000000 0.000000000000000 0.000000000000000
 0.000000000000000 0.000000000000000 0.000000000000000
 0.000000000000000 -0.000000000000000 -0.000000000000000
 -0.000000000000000 0.000000000000000 0.000000000000000
 -0.000000000000000 0.000000000000000 0.000000000000000
 -0.000000000000000 0.000000000000000 -0.000000000000000
 -0.000000000000000 -0.000000000000000 0.000000000000000
 -0.000000000000000 0.000000000000000 0.000000000000000
 0.000000000000000 0.000000000000000 -0.000000000000000
 -0.000000000000000 0.000000000000000 -0.000000000000000
 -0.000000000000000 0.000000000000000 0.000000000000000
 0.000000000000000 -0.000000000000000 0.000000000000000
 0.000000000000000 0.000000000000000 -0.000000000000000
 -0.000000000000000 -0.000000000000000 0.000000000000000
 -0.000000000000000 0.000000000000000 -0.000000000000000
 -0.000000000000000 -0.000000000000000 -0.000000000000000
 -0.000000000000000 0.000000000000000 -0.000000000000000
 0.000000000000000 -0.000000000000000 0.000000000000000
 245930.584183439 212542.109288896 480358.199203698
 177157.905538133 209102.943540629 511166.348176391
 124956.476383764 200332.251747095 529766.805226311
 86613.7478153963 189792.675848649 541180.929896445
 59030.1618090556 179328.874230990 548412.796043129
 39435.5205386113 169766.565438913 553194.498326695
 25643.9592085154 161426.149823427 556492.574532039
 15983.1251719374 154297.639640614 558870.985211322
 9236.79435042401 148307.325303195 560642.148693389
 4532.56181915414 143238.098387963 562016.283619572
 1223.83915097453 138962.098730261 563105.707069475
 -1085.09961924825 135243.074124995 564010.756510935
 -2764.37476288489 131978.521171402 564777.857375429
 -3922.07899262795 128982.205353184 565462.826363152
 -4819.62350084406 126168.262845386 566090.399741850
 -5383.63950174371 123451.830192830 566683.917230546
 -5843.01147543124 120719.948665148 567267.620450156
 -6026.67230025863 118045.726947743 567828.218363938
 -6133.41435972777 115235.586552219 568404.029560188
 -5998.28937838978 112567.755568250 568939.821888800
 -5727.90709643959 109730.995752306 569496.531729125
 -5301.75774961237 107207.894144191 569981.016173286
 -4626.10971510993 104582.219423457 570474.502926615
 -3973.41983599142 102449.541010731 570866.274605093
 -2937.62339877751 100381.979372731 571239.729523411
 -2180.61285304838 98890.2494288544 571503.248893201
 -935.183736974531 97715.6927418111 571708.639801224
 -222.130306675009 97019.1129292143 571827.983212220
 1002.82680785238 96937.9894613162 571840.904918135
 1560.08237066233 97046.6392385077 571821.227269072
 2524.71973900195 98057.9162677946 571645.231631872
 2898.59410221203 98867.7923816702 571503.943802495
 3428.95505951047 100786.279733000 571165.797369539
 3671.96250602435 102162.684261890 570919.698938266
 3702.74924914740 104708.715463609 570458.039257892
 3888.44578861473 106574.868700361 570111.109653943
 3447.89198884091 109503.437430836 569558.696915134
 3575.16149822618 111906.540161344 569090.629416246
 2688.91270357892 115146.806080741 568448.751250169
 2542.04929861379 118311.018687197 567799.296268110
 1004.23240404553 122096.936631286 567002.054301864
 -119.973540806878 126484.848219910 566040.253672065
 -3238.56471604673 131450.549223429 564898.455306296
 -7169.24065219025 137810.363404084 563344.393534635
 -14577.2242840998 144965.216029846 561402.342953422
 -25756.3347068332 154194.552430025 558534.377834859
 -44204.7984173326 164466.237604457 554433.758428468
 -72916.9148295104 176637.933474712 547614.977871797
 -117686.642088181 188632.704072518 535693.529201444
 -185510.242414222 198049.337637518 512603.560093721
 0.000000000000000 -0.000000000000000 0.000000000000000
 0.000000000000000 -0.000000000000000 0.000000000000000
 0.000000000000000 0.000000000000000 0.000000000000000
 -0.000000000000000 -0.000000000000000 -0.000000000000000
 0.000000000000000 0.000000000000000 -0.000000000000000
 -0.000000000000000 0.000000000000000 0.000000000000000
 0.000000000000000 0.000000000000000 -0.000000000000000
 -0.000000000000000 0.000000000000000 0.000000000000000
 -0.000000000000000 0.000000000000000 0.000000000000000
 -0.000000000000000 0.000000000000000 0.000000000000000
 -0.000000000000000 -0.000000000000000 -0.000000000000000
 -0.000000000000000 0.000000000000000 0.000000000000000
 0.000000000000000 0.000000000000000 -0.000000000000000
 -0.000000000000000 0.000000000000000 0.000000000000000
 -0.000000000000000 0.000000000000000 0.000000000000000
 0.000000000000000 0.000000000000000 0.000000000000000
 0.000000000000000 -0.000000000000000 0.000000000000000
 0.000000000000000 0.000000000000000 -0.000000000000000
 0.000000000000000 0.000000000000000 -0.000000000000000
 -0.000000000000000 0.000000000000000 0.000000000000000
 0.000000000000000 0.000000000000000 -0.000000000000000
 0.000000000000000 -0.000000000000000 0.000000000000000
 0.000000000000000 -0.000000000000000 0.000000000000000
 -0.000000000000000 0.000000000000000 0.000000000000000
 0.000000000000000 0.000000000000000 -0.000000000000000
 237683.555817111 173176.546049863 499916.404204117
 167677.728934618 169494.952316735 528730.215098851
 115923.761081714 159981.358798914 545314.263937341
 78862.9860973901 148720.689890951 555034.040237320
 52733.0943694295 137717.824173382 560939.409975065
 34468.4167929469 127835.733511584 564685.712127856
 21730.4677867467 119286.084316057 567184.817196574
 12860.7171930972 112067.492141833 568924.844912155
 6661.98157662720 105958.196662507 570200.384568006
 2294.18054891243 100819.536924596 571165.613206817
 -798.745528128106 96360.2450409878 571938.864898357
 -3072.12393559864 92470.8340880897 572572.883480852
 -4709.41737720045 88890.1782396934 573128.569869347
 -6019.90796870255 85544.6204394292 573625.207449884
 -6941.84880432502 82262.3045711960 574094.699489390
 -7755.99915913253 78956.6530783447 574548.249855232
 -8236.34063456517 75619.6652286525 574990.285938517
 -8663.66062786489 72079.9120423978 575438.465228460
 -8748.73634925481 68578.2947516097 575864.981659115
 -8718.83539763917 64790.4011223424 576303.900586934
 -8379.95679254527 61257.7525915829 576695.122288704
 -7778.81104699194 57477.6887618197 577092.544912247
 -7024.69168452425 54244.4185406269 577415.099182492
 -5817.31380019848 50942.0489788940 577729.232864309
 -4761.03121397760 48417.6735191578 577955.933850299
 -3075.50432446331 46131.5464187057 578154.323427724
 -1927.45661471894 44642.9198150470 578276.140456604
 -57.5750425665483 43786.8199692786 578344.802935145
 957.727195483235 43453.1522255572 578369.178224671
 2638.61098425560 44166.1734543224 578309.940131135
 3387.75682722861 44886.0709276360 578250.606346728
 4553.12382349761 47000.6039838090 578074.573293624
 5043.29261199700 48551.5264941989 577942.310680497
 5511.67109600396 51683.5322939205 577666.369084572
 5848.39777225562 53861.6067488868 577464.045254703
 5610.24521261123 57573.4344142949 577108.156932820
 5889.00714649914 60300.6096234734 576826.799025380
 5045.94081539797 64283.0171943951 576404.573352496
 5213.77501094157 67666.7088473803 576015.653488600
 3804.70624047339 71908.7950586678 575512.510206020
 3461.79007400592 76288.9135101887 574950.448025670
 1095.02599757287 81214.3368711134 574284.800778020
 -924.209697702943 87219.5315550401 573403.783691523
 -5836.22782810596 93737.2112862220 572345.414644880
 -12467.5093088483 102265.883635277 570776.883077731
 -24335.3960779587 111550.837830415 568651.210389164
 -42599.6175724067 123291.468730594 565141.120713170
 -72093.1859931543 135585.734856070 559302.316316405
 -117837.622371439 148546.522253960 548131.576795298
 -187550.922319011 157684.174765506 525699.869284566
 -0.000000000000000 0.000000000000000 -0.000000000000000
 0.000000000000000 0.000000000000000 -0.000000000000000
 -0.000000000000000 0.000000000000000 0.000000000000000
 0.000000000000000 0.000000000000000 -0.000000000000000
 0.000000000000000 0.000000000000000 0.000000000000000
 -0.000000000000000 0.000000000000000 0.000000000000000
 0.000000000000000 0.000000000000000 0.000000000000000
 0.000000000000000 0.000000000000000 0.000000000000000
 -0.000000000000000 -0.000000000000000 0.000000000000000
 -0.000000000000000 -0.000000000000000 0.000000000000000
 -0.000000000000000 -0.000000000000000 -0.000000000000000
 0.000000000000000 0.000000000000000 0.000000000000000
 -0.000000000000000 -0.000000000000000 0.000000000000000
 0.000000000000000 0.000000000000000 -0.000000000000000
 0.000000000000000 0.000000000000000 0.000000000000000
 0.000000000000000 0.000000000000000 -0.000000000000000
 -0.000000000000000 -0.000000000000000 0.000000000000000
 0.000000000000000 -0.000000000000000 -0.000000000000000
 0.000000000000000 -0.000000000000000 -0.000000000000000
 0.000000000000000 0.000000000000000 -0.000000000000000
 0.000000000000000 -0.000000000000000 0.000000000000000
 0.000000000000000 -0.000000000000000 0.000000000000000
 -0.000000000000000 0.000000000000000 -0.000000000000000
 0.000000000000000 0.000000000000000 0.000000000000000
 -0.000000000000000 0.000000000000000 -0.000000000000000
 222372.883906057 144831.074977515 515726.924083047
 152758.649159084 140335.025728235 541637.217758295
 103201.490488140 129818.675337959 555784.638051938
 68744.3345772254 117873.181807672 563719.903386487
 44964.7846572072 106549.494907741 568353.211722813
 28527.3004356907 96546.9049517095 571196.015632198
 17140.1818568700 88023.5013964199 573025.372359574
 9179.24856379734 80795.0958171047 574271.620304981
 3561.76177482413 74709.7602732395 575157.165975505
 -468.233750577970 69434.7308873285 575828.619385802
 -3455.02335028516 64840.2670212761 576353.886589011
 -5691.59171820665 60596.3125323310 576797.791857075
 -7516.94756163339 56633.0817790338 577179.512411490
 -8923.22616839907 52681.6608414048 577533.564951630
 -10210.2244030066 48689.5582009534 577862.508075958
 -11142.5032404114 44527.5803619220 578180.887965566
 -12045.7397642087 40082.6403722737 578487.927353994
 -12535.4636152785 35478.6750571782 578778.131729368
 -12938.6248216507 30451.8189204885 579055.505726487
 -12869.0210528612 25490.3913764076 579296.666868210
 -12539.0893289922 20112.5961397360 579515.534490076
 -11798.8284987236 15200.1776429612 579680.724404115
 -10555.7268148956 10061.7743762525 579816.641127012
 -9176.18304123678 5827.54416382600 579898.126737630
 -7055.50719987457 1737.30837545721 579954.482332675
 -5274.63289252310 -1188.08288430482 579974.798337746
 -2599.99957928824 -3476.86161097022 579983.751009910
 -793.803914929264 -4713.49820759972 579980.303812114
 1902.64816995336 -4785.59939672844 579977.135728949
 3393.67388463839 -4333.36106901848 579973.882997683
 5562.50505003089 -2247.01556587911 579968.972841320
 6589.44141003443 -411.251130676442 579962.421312288
 7850.58851863728 3371.04570381813 579937.069267670
 8481.95545766823 6187.78263071793 579904.964436181
 8714.74274821130 11007.7089233541 579830.047171662
 9126.23971207173 14506.7546233286 579746.725578520
 8441.60238862359 19757.3381666644 579601.921095574
 8744.33986255043 23856.4792440057 579443.185237732
 7344.05760402259 29207.7314025754 579217.552603703
 7394.30428426903 34086.7685338945 578950.271158990
 5279.24219682667 39667.2538163122 578617.869216376
 4384.58608216613 45806.1406051147 578171.750337002
 778.325989752750 52308.5432613477 577635.880560175
 -2968.35154770687 60507.3508038534 576827.573359482
 -10794.2277187738 69106.2480046609 575767.150100345
 -22094.4556705176 80267.2514503416 573993.905345023
 -41279.5302713359 91957.6905885231 571174.039608072
 -71102.8332420890 105812.958375301 565816.228951428
 -117991.173075732 118619.964403487 555344.386053490
 -189082.307850326 128072.173186676 533146.695866378
 -0.000000000000000 -0.000000000000000 0.000000000000000
 0.000000000000000 -0.000000000000000 -0.000000000000000
 0.000000000000000 0.000000000000000 0.000000000000000
 -0.000000000000000 0.000000000000000 0.000000000000000
 -0.000000000000000 -0.000000000000000 -0.000000000000000
 0.000000000000000 0.000000000000000 -0.000000000000000
 -0.000000000000000 -0.000000000000000 -0.000000000000000
 -0.000000000000000 0.000000000000000 0.000000000000000
 0.000000000000000 -0.000000000000000 0.000000000000000
 0.000000000000000 -0.000000000000000 0.000000000000000
 -0.000000000000000 -0.000000000000000 -0.000000000000000
 0.000000000000000 0.000000000000000 0.000000000000000
 -0.000000000000000 0.000000000000000 0.000000000000000
 -0.000000000000000 -0.000000000000000 -0.000000000000000
 0.000000000000000 -0.000000000000000 0.000000000000000
 -0.000000000000000 -0.000000000000000 0.000000000000000
 -0.000000000000000 -0.000000000000000 -0.000000000000000
 -0.000000000000000 -0.000000000000000 -0.000000000000000
 -0.000000000000000 0.000000000000000 -0.000000000000000
 -0.000000000000000 0.000000000000000 0.000000000000000
 0.000000000000000 0.000000000000000 0.000000000000000
 -0.000000000000000 0.000000000000000 -0.000000000000000
 -0.000000000000000 0.000000000000000 -0.000000000000000
 -0.000000000000000 -0.000000000000000 0.000000000000000
 -0.000000000000000 -0.000000000000000 0.000000000000000
 195156.526648032 125294.295929745 531615.716015004
 129398.244019471 118577.219818395 552806.962134901
 85389.9978496916 106423.542523635 563722.075019198
 55786.5483516259 93802.6084273046 569639.299623232
 35588.9526624872 82373.5044854550 573016.607269957
 21654.7697024362 72547.9743674735 575037.270413241
 11887.2474769978 64200.6580059962 576313.255841836
 4956.81666662046 57154.4336130779 577155.785457360
 -87.5209617561829 51047.3968558910 577749.215156818
 -3868.92431607494 45714.1334405509 578182.712841206
 -6800.87328308545 40772.3288922767 578525.163946468
 -9235.82138292855 36139.0037108860 578799.336570255
 -11252.0577673971 31457.7159761625 579036.961947648
 -13138.6066927210 26697.3037643380 579236.247990307
 -14701.6999325544 21593.6931075848 579411.401714765
 -16266.5347978039 16096.7958334317 579548.352607070
 -17409.8294577853 10158.6749529751 579649.634832500
 -18506.0480215762 3615.70380952838 579693.412824905
 -19008.7371024579 -3202.28006946548 579679.578143070
 -19261.0478750960 -10665.9385852801 579581.961234861
 -18820.1547347974 -17945.9958851090 579416.726551322
 -17823.0288103473 -25668.8073509583 579157.536403702
 -16267.4211964423 -32547.4148215147 578857.527199962
 -13845.6487088876 -39407.4334249907 578494.038173848
 -11328.2177388676 -44810.5387139363 578155.417775383
 -7742.90721281524 -49557.8530201574 577827.021341098
 -4768.47763768282 -52610.9785907706 577589.254187386
 -707.436933308090 -54338.0729604847 577448.589365258
 2074.47897895760 -54718.9086512652 577409.332772671
 5749.12315024980 -53196.6740804569 577526.675963787
 7858.81241498565 -51191.8452211825 577682.987502901
 10440.4837313763 -46884.3450906354 578007.659538243
 11756.5013713203 -43138.8090823313 578274.007566019
 12902.8534185093 -36945.1883521773 578678.295282692
 13609.4222540563 -32110.8417468406 578950.496560992
 13362.1093227355 -25013.1316071431 579306.306958289
 13733.4149420400 -19502.0761451921 579509.328949980
 12389.7968003583 -12249.0783212016 579738.262507769
 12544.6020610034 -6137.73931525973 579831.838652577
 10402.8079086789 999.316676883830 579905.839730722
 10044.1876328151 7993.07545549393 579857.935221688
 6942.58594504157 15380.3994759439 579754.468557472
 4901.54644729054 23906.4505294257 579486.372976543
 -660.527734327426 32552.5467434762 579085.395605541
 -7481.19042794864 43525.1177991228 578316.172962812
 -20096.2727516032 54703.4115131997 577064.707455161
 -39115.2428153711 68629.0244178454 574595.557576762
 -69990.9222017283 82344.2225459980 569842.697437325
 -117641.703429229 96466.2437271594 559691.605650328
 -189777.834237437 105549.175395659 537813.857394401
 0.000000000000000 -0.000000000000000 0.000000000000000
 0.000000000000000 -0.000000000000000 0.000000000000000
 0.000000000000000 -0.000000000000000 0.000000000000000
 0.000000000000000 -0.000000000000000 -0.000000000000000
 -0.000000000000000 0.000000000000000 -0.000000000000000
 0.000000000000000 0.000000000000000 -0.000000000000000
 -0.000000000000000 -0.000000000000000 -0.000000000000000
 0.000000000000000 -0.000000000000000 0.000000000000000
 0.000000000000000 -0.000000000000000 0.000000000000000
 -0.000000000000000 -0.000000000000000 0.000000000000000
 0.000000000000000 0.000000000000000 -0.000000000000000
 0.000000000000000 0.000000000000000 0.000000000000000
 0.000000000000000 -0.000000000000000 -0.000000000000000
 0.000000000000000 -0.000000000000000 0.000000000000000
 -0.000000000000000 0.000000000000000 0.000000000000000
 -0.000000000000000 0.000000000000000 0.000000000000000
 0.000000000000000 -0.000000000000000 0.000000000000000
 0.000000000000000 -0.000000000000000 -0.000000000000000
 0.000000000000000 -0.000000000000000 -0.000000000000000
 0.000000000000000 0.000000000000000 0.000000000000000
 0.000000000000000 -0.000000000000000 0.000000000000000
 -0.000000000000000 -0.000000000000000 -0.000000000000000
 -0.000000000000000 -0.000000000000000 0.000000000000000
 0.000000000000000 0.000000000000000 0.000000000000000
 -0.000000000000000 0.000000000000000 -0.000000000000000
 146391.885202281 113892.204014180 549543.430323496
 94367.3590536352 101478.187694286 563202.431606545
 62083.2676026364 86829.2608570245 570093.279510294
 40262.3898009659 73708.5377379364 573886.740944632
 24987.7648112638 62580.9682474025 576072.247225081
 14048.6694539363 53205.0673563034 577383.629568925
 6112.59200143695 45290.2267112885 578196.706652212
 184.380802249518 38428.8292478639 578725.488540429
 -4360.71721408121 32399.9796921045 579077.909664434
 -8016.34509624361 26789.8467548427 579325.506362486
 -11121.5168609105 21484.6966635825 579495.228342724
 -13849.2332290361 16065.1993861455 579612.032404134
 -16454.3074043889 10497.5999656141 579671.507116577
 -18827.1131866668 4394.62230789975 579677.692432465
 -21253.0259577935 -2253.11811926768 579606.101025842
 -23337.7912190128 -9687.97432292742 579449.299468500
 -25441.8132098264 -17975.9759570241 579162.825489507
 -26929.1052751197 -27024.3114973885 578743.906989243
 -28197.7729612300 -37048.8693938836 578128.244316659
 -28542.5571094223 -47412.1035608033 577353.803892894
 -28270.2183817785 -58557.9445600813 576343.440911359
 -26949.9913924745 -69211.7203470117 575224.682824505
 -24584.6455402473 -80068.7079301713 573920.375325753
 -21458.6053992069 -89407.4449604859 572665.554263532
 -17011.8715024426 -98080.5818198862 571393.730887780
 -12569.2977969874 -104454.349753524 570378.209235293
 -6800.07718668042 -109247.433449362 569577.700788033
 -2038.28237776573 -111646.386025679 569149.303691354
 3796.52893025345 -111734.471207797 569123.004553494
 7849.47097257070 -110156.546853448 569389.076985830
 12525.6747502561 -105819.417650718 570127.493040034
 15289.7981488122 -101089.650837442 570917.773909809
 18054.9237970115 -93441.4993948961 572138.712129775
 19538.8896887790 -86690.3616999564 573151.823671582
 20241.6291655336 -77174.6150888993 574486.166269132
 20828.2659718420 -69352.7926782693 575461.878393636
 19790.5080990902 -59272.4524674728 576623.891429822
 19886.9707916470 -50902.3396599552 577419.656930620
 17639.8596078864 -41074.9585774442 578274.747097671
 17353.8756870593 -32193.2894368410 578845.778350221
 14233.6860520113 -22719.7010432077 579380.028449273
 13002.9564477045 -12891.1363887756 579710.912202130
 8451.00337686166 -3074.75404683057 579930.277213973
 4321.93779399836 8524.73451175816 579921.244442043
 -4411.15685564664 19954.1636863605 579639.864956485
 -16391.8029643973 34138.8191851159 578762.343125589
 -36742.6409297180 48094.8204692753 576833.482542005
 -67917.0099190401 64132.1051358080 572428.469640100
 -116563.070840907 78056.1183840205 562779.080011827
 -189545.202187798 87830.3334466957 541071.574613034
 254434.338399771 351187.820618076 385136.705719666
 191130.294849486 344155.173512338 425941.811677888
 138577.653662553 334142.380110940 453370.823630258
 97438.4052514301 323039.841042253 471753.132773333
 66397.7059557453 312144.259251542 484311.166565588
 43567.3113956935 302154.765047375 493157.568467641
 27111.9667230985 293371.497679905 499597.943960396
 15470.1512254839 285863.559728277 504423.135512774
 7393.32584292922 279576.531872211 508116.425201240
 1916.04429409272 274395.077702534 510983.042876066
 -1693.89401113608 270177.633405986 513226.243610184
 -3984.88220420340 266775.116154084 514990.444683000