# OOMMF OVF 2.0
#
# Segment count: 1
#
# Begin: Segment
# Begin: Header
#
# Title: Oxs_TimeDriver::Magnetization
# Desc: Oxs vector field output
# Desc:  MIF source file: C:/Users/Victor H. González/Documents/GitHub/Intro-to-magnetism-in-python/domain_wall_conversion_thin_film/drive-42/domain_wall_conversion_thin_film.mif
# Desc:  Iteration: 542, State id: 3822
# Desc:  Stage: 44, Stage iteration: 11
# Desc:  Stage simulation time: 2e-12 s
# Desc:  Total simulation time: 9e-11 s
# meshunit: m
# meshtype: rectangular
# xbase: 1.0000000000000001e-09
# ybase: 1.0000000000000001e-09
# zbase: 1.0000000000000001e-09
# xnodes: 75
# ynodes: 25
# znodes: 1
# xstepsize: 2.0000000000000001e-09
# ystepsize: 2.0000000000000001e-09
# zstepsize: 2.0000000000000001e-09
# xmin: 0
# ymin: 0
# zmin: 0
# xmax: 1.5000000000000002e-07
# ymax: 5.0000000000000004e-08
# zmax: 2.0000000000000001e-09
# valuedim: 3
# valuelabels: Magnetization_x Magnetization_y Magnetization_z
# valueunits: A/m A/m A/m
#
# End: Header
#
# Begin: Data Text
 0.000000000000000 -0.000000000000000 -0.000000000000000
 -0.000000000000000 0.000000000000000 0.000000000000000
 0.000000000000000 0.000000000000000 -0.000000000000000
 0.000000000000000 0.000000000000000 0.000000000000000
 0.000000000000000 0.000000000000000 0.000000000000000
 0.000000000000000 -0.000000000000000 0.000000000000000
 -0.000000000000000 -0.000000000000000 0.000000000000000
 -0.000000000000000 -0.000000000000000 -0.000000000000000
 -0.000000000000000 0.000000000000000 -0.000000000000000
 -0.000000000000000 -0.000000000000000 -0.000000000000000
 0.000000000000000 -0.000000000000000 -0.000000000000000
 0.000000000000000 0.000000000000000 0.000000000000000
 0.000000000000000 0.000000000000000 -0.000000000000000
 0.000000000000000 0.000000000000000 0.000000000000000
 0.000000000000000 0.000000000000000 -0.000000000000000
 -0.000000000000000 0.000000000000000 -0.000000000000000
 0.000000000000000 -0.000000000000000 -0.000000000000000
 -0.000000000000000 -0.000000000000000 0.000000000000000
 0.000000000000000 -0.000000000000000 -0.000000000000000
 -0.000000000000000 -0.000000000000000 -0.000000000000000
 0.000000000000000 -0.000000000000000 0.000000000000000
 0.000000000000000 -0.000000000000000 0.000000000000000
 0.000000000000000 0.000000000000000 -0.000000000000000
 -0.000000000000000 -0.000000000000000 0.000000000000000
 0.000000000000000 -0.000000000000000 0.000000000000000
 251108.893253862 337009.560921523 399710.995065563
 187817.019184168 335887.972532093 433940.130908693
 136686.317952098 330415.175878176 456664.715118315
 97503.0895967244 322766.909366835 471926.551209904
 68465.0873446493 314512.552031863 482487.705987722
 47440.0768882524 306569.859219687 490065.669602410
 32471.5715003287 299408.472470968 495681.514338491
 21970.9265519264 293203.427204523 499949.026063629
 14686.1924101259 287975.927126640 503243.659819023
 9704.35450178094 283653.323449548 505812.828623127
 6324.50344372797 280126.702168172 507827.757599537
 4078.12293658637 277277.243077103 509412.111541211
 2589.85705610779 274977.530136506 510666.868477343
 1640.98462002613 273132.864787627 511659.794533810
 1032.55998446575 271626.059580948 512462.893853210
 672.274640627266 270406.627239682 513107.984728037
 457.943740641576 269367.241851912 513654.630373974
 348.323468845554 268502.236328294 514107.408775118
 303.837235475366 267707.540575914 514521.700613035
 286.083126813228 267013.149130783 514882.410213932
 310.654125990685 266316.611439472 515243.016415954
 310.195121680345 265666.707384142 515578.417281654
 360.085617449587 264972.414690845 515935.548098064
 345.832981699828 264276.985817620 516292.121929729
 405.388127493822 263524.211031711 516676.713100736
 374.661598045687 262721.100222124 517085.566542680
 442.300331674595 261878.917470749 517512.547630263
 412.855496132213 260935.142676203 517989.074080612
 491.520529845828 259999.577562813 518459.234727985
 494.899402311547 258913.865092533 519002.278932788
 589.889110469693 257902.571302955 519505.453047570
 670.564152485456 256708.601123421 520096.379965265
 800.056798086248 255663.067015856 520610.945018606
 1018.25969983363 254447.578110805 521205.710963272
 1222.22123942201 253463.604600423 521684.490202845
 1634.19556041367 252411.929094401 522193.017432934
 1939.82562674441 251701.372998858 522534.837027186
 2513.49175575325 251152.269232471 522796.537879292
 2812.56576821464 251098.995313791 522820.604056692
 3250.46159192439 251561.257172751 522595.798288796
 3063.31475017370 252722.268764087 522036.465176020
 2504.28165525550 254828.898330825 521014.357910499
 560.910766580279 257878.768756374 519517.300966781
 -2997.93150833217 262307.140814388 517287.131373333
 -9653.76238149602 267938.376214202 514311.025959563
 -20699.9415293768 275240.812378680 510111.759932865
 -38750.5143635279 283791.830365690 504341.743914038
 -67130.1856623585 293586.783790887 495681.690761583
 -110589.817081474 303285.077600112 481858.956607616
 -174531.619849895 310784.668101023 457549.564250595
 -0.000000000000000 -0.000000000000000 -0.000000000000000
 -0.000000000000000 -0.000000000000000 -0.000000000000000
 0.000000000000000 0.000000000000000 -0.000000000000000
 0.000000000000000 -0.000000000000000 0.000000000000000
 -0.000000000000000 -0.000000000000000 -0.000000000000000
 -0.000000000000000 -0.000000000000000 -0.000000000000000
 0.000000000000000 0.000000000000000 0.000000000000000
 0.000000000000000 0.000000000000000 -0.000000000000000
 0.000000000000000 0.000000000000000 -0.000000000000000
 0.000000000000000 0.000000000000000 -0.000000000000000
 -0.000000000000000 0.000000000000000 0.000000000000000
 -0.000000000000000 -0.000000000000000 0.000000000000000
 0.000000000000000 -0.000000000000000 -0.000000000000000
 -0.000000000000000 -0.000000000000000 -0.000000000000000
 -0.000000000000000 0.000000000000000 0.000000000000000
 -0.000000000000000 0.000000000000000 0.000000000000000
 -0.000000000000000 -0.000000000000000 -0.000000000000000
 0.000000000000000 0.000000000000000 -0.000000000000000
 0.000000000000000 -0.000000000000000 0.000000000000000
 -0.000000000000000 -0.000000000000000 -0.000000000000000
 -0.000000000000000 0.000000000000000 0.000000000000000
 0.000000000000000 -0.000000000000000 -0.000000000000000
 0.000000000000000 0.000000000000000 -0.000000000000000
 0.000000000000000 -0.000000000000000 0.000000000000000
 -0.000000000000000 0.000000000000000 0.000000000000000
 249048.653762372 271783.730685084 447781.611719427
 183115.563770489 268603.680464355 480334.001655117
 131714.429324025 260755.859349788 501056.574572773
 93130.5573906443 251185.935903647 514424.265450529
 64934.3326891086 241508.233629802 523313.773492761
 44711.6244105904 232563.229279433 529448.028638967
 30439.2720713719 224690.230246645 533842.440376816
 20471.2401185153 217997.565027078 537082.852053829
 13619.0087227426 212422.100977831 539528.844101569
 8926.99496922004 207858.182099572 541401.223581071
 5796.34424567714 204161.994343546 542848.305200496
 3686.38980768766 201179.827933870 543978.940183059
 2341.47079665745 198801.869714184 544859.921551083
 1444.42718639009 196862.897157440 545566.598457863
 917.816549577093 195329.186609368 546118.729280826
 570.582419119845 194016.584523625 546586.900104174
 393.369065972895 192981.461612058 546953.380769195
 290.864620650069 192005.485144638 547296.819899536
 238.045590865380 191230.835647395 547567.996537321
 248.197110082361 190402.372238025 547856.619056781
 210.155810270559 189722.014399392 548092.613603552
 280.295187894824 188922.921075759 548368.536047438
 206.251287007938 188212.646414039 548612.757042916
 318.347893354116 187374.728863691 548899.453122225
 197.349680671109 186538.253610756 549184.341540209
 344.784634319152 185633.138278151 549490.872623523
 199.205440158134 184604.299352463 549837.442320709
 369.824646036987 183636.499201431 550161.339418514
 247.560912843351 182387.750533783 550576.649676338
 414.217043052896 181380.204940605 550909.293513865
 381.404465138353 179928.102402820 551385.284983517
 513.505159648286 178904.407895272 551718.179098798
 654.882279437981 177320.043390907 552229.276062984
 752.034294522200 176312.499572364 552551.659973042
 1165.67766302739 174759.261227702 553044.159006072
 1274.72804351711 173872.189991234 553323.446653101
 2016.84100376142 172672.225516189 553696.879969223
 2164.37067409784 172181.826519615 553849.017437021
 3100.75655933863 171861.369800118 553944.090030020
 3095.84473203425 172276.614231799 553815.117105179
 3653.23604971157 173527.258245581 553421.127634406
 2748.13702307146 175556.136232788 552786.116661695
 1526.00902822426 179126.120969679 551644.363773257
 -2188.47656037195 183583.369655123 550174.842169664
 -8242.13622908668 190166.731930794 547876.520081983
 -19201.1716445532 197811.850542574 544886.948634668
 -36821.8213483293 207747.541536995 540263.928518207
 -65071.6698040520 218509.228695766 533309.848740574
 -108904.376487008 230040.350615870 521172.978837644
 -175107.394223458 238857.462519788 498682.778013116
 -0.000000000000000 0.000000000000000 -0.000000000000000
 -0.000000000000000 -0.000000000000000 0.000000000000000
 -0.000000000000000 -0.000000000000000 -0.000000000000000
 0.000000000000000 0.000000000000000 0.000000000000000
 0.000000000000000 -0.000000000000000 -0.000000000000000
 -0.000000000000000 0.000000000000000 0.000000000000000
 0.000000000000000 0.000000000000000 -0.000000000000000
 -0.000000000000000 0.000000000000000 0.000000000000000
 0.000000000000000 0.000000000000000 0.000000000000000
 0.000000000000000 -0.000000000000000 -0.000000000000000
 -0.000000000000000 0.000000000000000 0.000000000000000
 -0.000000000000000 0.000000000000000 0.000000000000000
 -0.000000000000000 0.000000000000000 -0.000000000000000
 -0.000000000000000 -0.000000000000000 0.000000000000000
 -0.000000000000000 0.000000000000000 0.000000000000000
 0.000000000000000 0.000000000000000 -0.000000000000000
 -0.000000000000000 0.000000000000000 -0.000000000000000
 -0.000000000000000 0.000000000000000 0.000000000000000
 0.000000000000000 -0.000000000000000 0.000000000000000
 0.000000000000000 0.000000000000000 -0.000000000000000
 -0.000000000000000 -0.000000000000000 0.000000000000000
 -0.000000000000000 0.000000000000000 -0.000000000000000
 -0.000000000000000 -0.000000000000000 -0.000000000000000
 -0.000000000000000 0.000000000000000 -0.000000000000000
 0.000000000000000 -0.000000000000000 0.000000000000000
 245383.531765179 218913.312243395 477769.697721688
 177077.765037284 215337.821605345 508599.142464540
 125327.602640349 206475.799196078 527314.646451968
 87425.2454450860 195886.148332724 538874.237044449
 60254.6502578203 185433.411477352 546245.207786923
 41090.6528324035 175941.901427163 551140.640464846
 27708.4508118718 167750.858255638 554519.513911010
 18497.5139187766 160863.680185714 556938.702530120
 12175.6244581064 155207.755155792 558714.870849663
 7943.05290116097 150610.122956080 560047.764725263
 5072.62506122496 146908.770321243 561063.349077168
 3235.65031892520 143955.715973097 561841.866013638
 1989.69087609279 141564.738603831 562454.856778966
 1258.54955392061 139683.533292496 562927.105920424
 748.818646264567 138088.729792749 563321.348765392
 494.582857009231 136855.042265026 563622.615581061
 310.082309184590 135691.920043766 563903.898447065
 227.932545293717 134811.276654265 564115.119220893
 192.538346697518 133838.425118295 564346.736404881
 130.995813707485 133104.479323629 564520.310019119
 179.446868789487 132170.566985168 564739.682527836
 63.0022914190990 131426.318792600 564913.372792092
 179.499061015810 130445.281653691 565140.687151772
 -17.2704061162114 129561.295847494 565344.028287247
 168.224684430315 128500.369771810 565586.091297306
 -89.4647486228315 127375.476248888 565840.507604774
 156.817575516860 126249.287504924 566092.830561161
 -104.830366432059 124825.079570170 566408.587965344
 161.462044814179 123678.502417259 566660.040915037
 -23.2976907112605 121949.416687985 567034.689614910
 188.295052410466 120820.334237373 567276.309552710
 180.285793837500 118835.055322114 567695.514447334
 273.084767717846 117724.929554661 567926.726247374
 571.011803801537 115607.765206646 568361.257097495
 562.155775757143 114520.410560565 568581.357015795
 1308.83633832801 112546.095140676 568974.220343967
 1304.45292437361 111621.192567114 569156.400097955
 2537.94357174280 110312.320829465 569407.367985034
 2577.71369309936 109974.238706457 569472.582494585
 3978.15627907185 110110.186119226 569438.250546456
 3703.33106923913 111090.210161323 569249.725994931
 4250.75704430437 113557.113070465 568758.923565734
 2425.78449243126 116758.869338725 568121.009997289
 -103.217429662441 122347.461269773 566948.928975974
 -6459.14394240599 128678.855905864 565508.648477006
 -16730.4743737786 137921.446059106 563114.345354647
 -34481.7783556284 147945.019877512 559752.872306053
 -62840.7894987946 160361.295120175 553836.880500521
 -107543.895316071 172256.312491342 543288.204719310
 -176139.720325886 181607.261318936 521913.404272926
 0.000000000000000 -0.000000000000000 0.000000000000000
 0.000000000000000 -0.000000000000000 0.000000000000000
 0.000000000000000 0.000000000000000 0.000000000000000
 -0.000000000000000 -0.000000000000000 -0.000000000000000
 0.000000000000000 0.000000000000000 -0.000000000000000
 -0.000000000000000 0.000000000000000 0.000000000000000
 0.000000000000000 0.000000000000000 -0.000000000000000
 -0.000000000000000 0.000000000000000 0.000000000000000
 -0.000000000000000 0.000000000000000 0.000000000000000
 -0.000000000000000 0.000000000000000 0.000000000000000
 -0.000000000000000 -0.000000000000000 -0.000000000000000
 -0.000000000000000 0.000000000000000 0.000000000000000
 0.000000000000000 0.000000000000000 -0.000000000000000
 -0.000000000000000 0.000000000000000 0.000000000000000
 -0.000000000000000 0.000000000000000 0.000000000000000
 0.000000000000000 0.000000000000000 0.000000000000000
 0.000000000000000 -0.000000000000000 0.000000000000000
 0.000000000000000 0.000000000000000 -0.000000000000000
 0.000000000000000 0.000000000000000 -0.000000000000000
 -0.000000000000000 0.000000000000000 0.000000000000000
 0.000000000000000 0.000000000000000 -0.000000000000000
 0.000000000000000 -0.000000000000000 0.000000000000000
 0.000000000000000 -0.000000000000000 0.000000000000000
 -0.000000000000000 0.000000000000000 0.000000000000000
 0.000000000000000 0.000000000000000 -0.000000000000000
 237743.439397832 178958.078799401 497847.429495942
 168147.878134379 175184.706906376 526722.516648979
 116843.941853784 165637.066728582 543426.034872844
 80234.9766877499 154416.415824001 553279.241468524
 54591.7972218707 143514.881904136 559306.011364198
 36804.2967289582 133823.197255501 563148.999482910
 24603.7043309538 125554.393783368 565712.605423359
 16253.2415590656 118725.089149304 567485.845942710
 10651.7409860019 113148.139587799 568756.572640516
 6851.91121073583 108666.950653383 569688.112170559
 4403.51005481058 105080.601721436 570384.673918451
 2736.45679281518 102201.282196747 570918.041159641
 1748.54549411267 99927.8146360719 571324.228832205
 1045.29430967110 98031.8536468997 571654.321273231
 695.382283887031 96561.3252735880 571905.085573548
 410.610886297628 95201.9322850985 572133.221800556
 298.760862292341 94179.0904715467 572302.550806738
 195.608525086671 93053.4793422098 572486.691303487
 120.970612296802 92229.9524503280 572619.962311062
 112.135747916602 91142.0295120469 572794.132199344
 -30.7149421510450 90328.2843374974 572923.031571639
 38.3812155095391 89159.8469968928 573106.028768126
 -218.765371430874 88193.5378987246 573255.485812930
 -57.5928640872997 86891.3338741127 573454.351087024
 -419.740025564441 85633.3355357115 573643.404619402
 -153.422480852215 84208.9569546694 573854.361341054
 -559.321607099153 82564.1297905914 574093.068788731
 -214.034094477689 81086.0880032085 574303.926960056
 -570.132324151510 79024.6373622126 574590.968984811
 -240.036004195413 77574.8693953171 574788.728161066
 -440.142165537101 75129.3141559027 575113.373544154
 -259.452904608270 73731.1380063721 575294.404607307
 -170.251112191120 70987.5551694646 575639.416671253
 -204.675200141209 69582.9173467718 575810.885379545
 369.701546879426 66736.4281686208 576147.648156322
 232.257429177829 65311.3591479842 576311.003211572
 1500.97149508393 62817.6116445439 576586.242249888
 1486.00721264413 61653.2464596944 576711.946281282
 3420.86591628084 60354.4553649202 576841.085043347
 3523.74357504971 60187.7233891950 576857.886471567
 5445.10958879239 61198.3888091854 576736.601915229
 4916.28155564381 63080.5524385909 576538.527836352
 5073.11924866571 67422.6407482628 576045.528561433
 1815.93621270226 72392.2589170658 575461.608819003
 -3252.12498563188 80690.4946256570 574350.474675650
 -13942.6496417482 89509.5467658602 572881.875746421
 -31386.1407834029 101707.041646592 570149.618824939
 -60248.5503276818 113988.002555080 565488.149705116
 -105975.596643448 127275.209192445 555850.873923109
 -176291.071882696 136214.954955629 535506.250216453
 -0.000000000000000 0.000000000000000 -0.000000000000000
 0.000000000000000 0.000000000000000 -0.000000000000000
 -0.000000000000000 0.000000000000000 0.000000000000000
 0.000000000000000 0.000000000000000 -0.000000000000000
 0.000000000000000 0.000000000000000 0.000000000000000
 -0.000000000000000 0.000000000000000 0.000000000000000
 0.000000000000000 0.000000000000000 0.000000000000000
 0.000000000000000 0.000000000000000 0.000000000000000
 -0.000000000000000 -0.000000000000000 0.000000000000000
 -0.000000000000000 -0.000000000000000 0.000000000000000
 -0.000000000000000 -0.000000000000000 -0.000000000000000
 0.000000000000000 0.000000000000000 0.000000000000000
 -0.000000000000000 -0.000000000000000 0.000000000000000
 0.000000000000000 0.000000000000000 -0.000000000000000
 0.000000000000000 0.000000000000000 0.000000000000000
 0.000000000000000 0.000000000000000 -0.000000000000000
 -0.000000000000000 -0.000000000000000 0.000000000000000
 0.000000000000000 -0.000000000000000 -0.000000000000000
 0.000000000000000 -0.000000000000000 -0.000000000000000
 0.000000000000000 0.000000000000000 -0.000000000000000
 0.000000000000000 -0.000000000000000 0.000000000000000
 0.000000000000000 -0.000000000000000 0.000000000000000
 -0.000000000000000 0.000000000000000 -0.000000000000000
 0.000000000000000 0.000000000000000 0.000000000000000
 -0.000000000000000 0.000000000000000 -0.000000000000000
 223219.478989051 149967.395697940 513889.914697140
 154005.187809378 145433.380456873 539936.601812365
 104905.409296836 134979.778151859 554233.989024796
 70972.9652709577 123173.447648073 562308.758597210
 47739.3342676602 112095.535929019 567058.680198502
 31932.4471092568 102432.239722218 569989.434189008
 21179.3037634028 94379.1451144733 571877.621576119
 13962.0772576820 87768.9401599292 573150.655187494
 9075.46233455142 82460.3544233430 574036.519684759
 5899.99287919653 78196.2766810742 574674.283744490
 3741.33534181707 74797.2307929766 575144.657173795
 2439.78668545281 72095.1300643990 575496.602650205
 1513.03830084957 69880.5542928043 575772.888252678
 1041.71678115713 68140.0021306434 575982.512699634
 643.430483679783 66577.3006067480 576165.817314019
 494.367673141923 65378.3405319615 576303.243258174
 310.765091116973 64097.9841274414 576447.180456159
 227.214218510858 63147.8860544411 576552.072982618
 136.658642223956 61900.5598775761 576687.352047240
 -21.1985361940620 60977.0313007459 576785.749827759
 -44.8088654160563 59599.5637324192 576929.709752471
 -349.905141053806 58507.6248715094 577041.363680531
 -283.325556261224 56907.0836983691 577201.441051194
 -745.165634255740 55465.7417942594 577341.316913479
 -546.606221865477 53625.2987015939 577515.392488203
 -1105.41147216369 51691.7592305232 577690.868971573
 -758.930380834843 49682.4968399846 577867.695525907
 -1304.51866478571 47193.1579939240 578075.344630451
 -880.052781058158 45148.9727438817 578239.393129934
 -1294.24008408927 42129.4377907079 578466.451416194
 -968.971119402921 40151.1466078249 578607.765693693
 -1135.34845707526 36676.3832908552 578838.106807580
 -1093.13328380409 34720.5584550784 578958.796357903
 -825.577630631549 30905.9689649075 579175.396148624
 -1046.73204705038 28826.0413672862 579282.283253263
 -21.5861211123389 24981.3222376261 579461.761528143
 -176.082869730207 22836.9671697212 579550.206561357
 1905.96674348490 19751.1497891833 579660.469044404
 2179.30347975714 18197.9105446460 579710.347232264
 5083.15955334377 17224.7507682904 579721.889745355
 5516.88247348977 17527.7147530356 579708.843492412
 7874.56624048976 20145.1776035152 579596.551944408
 6921.25285275862 23649.1230004078 579476.328455494
 5853.92028096640 30766.9032073830 579153.804515149
 53.4948396238838 38348.7392487880 578730.828050770
 -9665.23573316584 49989.4620276849 577760.882116819
 -27622.1702503766 61714.9347896761 576045.382356777
 -56840.7898486228 76375.4157071322 572132.782214887
 -103373.371395658 89299.4297867313 563683.916682089
 -175203.656766233 98754.1517333104 544014.058799195
 -0.000000000000000 -0.000000000000000 0.000000000000000
 0.000000000000000 -0.000000000000000 -0.000000000000000
 0.000000000000000 0.000000000000000 0.000000000000000
 -0.000000000000000 0.000000000000000 0.000000000000000
 -0.000000000000000 -0.000000000000000 -0.000000000000000
 0.000000000000000 0.000000000000000 -0.000000000000000
 -0.000000000000000 -0.000000000000000 -0.000000000000000
 -0.000000000000000 0.000000000000000 0.000000000000000
 0.000000000000000 -0.000000000000000 0.000000000000000
 0.000000000000000 -0.000000000000000 0.000000000000000
 -0.000000000000000 -0.000000000000000 -0.000000000000000
 0.000000000000000 0.000000000000000 0.000000000000000
 -0.000000000000000 0.000000000000000 0.000000000000000
 -0.000000000000000 -0.000000000000000 -0.000000000000000
 0.000000000000000 -0.000000000000000 0.000000000000000
 -0.000000000000000 -0.000000000000000 0.000000000000000
 -0.000000000000000 -0.000000000000000 -0.000000000000000
 -0.000000000000000 -0.000000000000000 -0.000000000000000
 -0.000000000000000 0.000000000000000 -0.000000000000000
 -0.000000000000000 0.000000000000000 0.000000000000000
 0.000000000000000 0.000000000000000 0.000000000000000
 -0.000000000000000 0.000000000000000 -0.000000000000000
 -0.000000000000000 0.000000000000000 -0.000000000000000
 -0.000000000000000 -0.000000000000000 0.000000000000000
 -0.000000000000000 -0.000000000000000 0.000000000000000
 197005.005196227 129787.528265181 529853.022483074
 131658.411258118 123123.562857573 551277.290493854
 88174.8565552687 111138.227151799 562381.977962499
 59169.9334218787 98817.2856091838 568448.821833315
 39691.1228547444 87793.2625094160 571941.393697364
 26518.6950440171 78532.1306907012 574046.568896933
 17657.3620918102 70905.7492976429 575378.651220654
 11652.2624051550 64781.1452531967 576253.093701479
 7705.54318525830 59846.6372343158 576852.671499374
 5023.40477557970 55931.6832932447 577274.988379407
 3370.20351841660 52797.0892467150 577582.123247698
 2201.38416211371 50265.0334860367 577813.620743245
 1584.00930554639 48242.1362207554 577988.051093946
 1065.28576544282 46479.4471878865 578133.657691148
 866.742814937725 45084.3609379626 578244.454496286
 598.971141552561 43655.8008692855 578354.400246106
 504.275005028821 42550.6206338090 578436.850823318
 320.699303737466 41150.4485356133 578538.276812585
 153.352165753082 40080.0867216792 578613.483364756
 6.18358110402417 38492.2653975870 578721.302067174
 -338.615265720854 37230.3457316148 578803.754908697
 -429.563590789791 35306.5229171489 578924.230719895
 -990.805229267238 33627.7386224815 579023.482684542
 -962.481051548158 31293.4057184692 579154.380445115
 -1693.62619055784 28992.8552538749 579272.428115265
 -1475.02574340098 26280.0101968339 579402.438174979
 -2247.31600677361 23235.9193929595 579530.017877184
 -1835.74887385566 20301.1343164638 579641.694473005
 -2496.29381650263 16524.5787607326 579759.180016981
 -2045.48641785549 13575.3966735937 579837.498434233
 -2482.98193318600 9169.84220590008 579922.192017721
 -2279.31492850292 6279.53194282451 579961.526484331
 -2375.23702374918 1338.58087754292 579993.591732112
 -2588.74001730223 -1678.71062843012 579991.793352069
 -2029.52101842386 -7022.05510979542 579953.939366283
 -2380.23981965587 -10375.5042449720 579902.305022203
 -597.374508229550 -15566.2875580853 579790.767290542
 -394.023868749283 -18864.1661812027 579693.011842888
 2970.58526943597 -22476.3403588990 579556.718317739
 4082.53748293629 -24298.3878099280 579476.419915028
 8238.27567413913 -24239.4942283478 579434.705323620
 9235.44289119764 -22655.6243675486 579483.761014164
 11602.8258111938 -17282.9078504515 579626.324048027
 9580.32046377029 -11013.3414742743 579816.284498273
 5733.85447958715 -108.876231340535 579971.646771438
 -4657.22159900144 10932.0820275689 579878.262973807
 -22308.6645662333 26081.7396993133 578983.649457848
 -52075.7736587527 40303.9366765818 576249.691094245
 -99544.1535652991 55206.2222623726 568720.699917355
 -172181.627470135 64067.6977227623 550135.271792530
 0.000000000000000 -0.000000000000000 0.000000000000000
 0.000000000000000 -0.000000000000000 0.000000000000000
 0.000000000000000 -0.000000000000000 0.000000000000000
 0.000000000000000 -0.000000000000000 -0.000000000000000
 -0.000000000000000 0.000000000000000 -0.000000000000000
 0.000000000000000 0.000000000000000 -0.000000000000000
 -0.000000000000000 -0.000000000000000 -0.000000000000000
 0.000000000000000 -0.000000000000000 0.000000000000000
 0.000000000000000 -0.000000000000000 0.000000000000000
 -0.000000000000000 -0.000000000000000 0.000000000000000
 0.000000000000000 0.000000000000000 -0.000000000000000
 0.000000000000000 0.000000000000000 0.000000000000000
 0.000000000000000 -0.000000000000000 -0.000000000000000
 0.000000000000000 -0.000000000000000 0.000000000000000
 -0.000000000000000 0.000000000000000 0.000000000000000
 -0.000000000000000 0.000000000000000 0.000000000000000
 0.000000000000000 -0.000000000000000 0.000000000000000
 0.000000000000000 -0.000000000000000 -0.000000000000000
 0.000000000000000 -0.000000000000000 -0.000000000000000
 0.000000000000000 0.000000000000000 0.000000000000000
 0.000000000000000 -0.000000000000000 0.000000000000000
 -0.000000000000000 -0.000000000000000 -0.000000000000000
 -0.000000000000000 -0.000000000000000 0.000000000000000
 0.000000000000000 0.000000000000000 0.000000000000000
 -0.000000000000000 0.000000000000000 -0.000000000000000
 149498.714805925 117709.837713200 547900.108027831
 97928.9671894573 105491.711770579 561855.333811934
 66254.8058847350 91201.0706774894 568939.948856165
 45222.9358724840 78556.9812786241 572873.185586010
 30843.7983805236 68093.6062907790 575162.516932196
 20986.9947475554 59553.6618482183 576552.605936296
 14201.7722429909 52723.7090018981 577424.038445094
 9645.74501487085 47217.7588039554 577994.327702824
 6520.62936915745 42861.4279720118 578377.367628463
 4540.32885781423 39350.7533055818 578645.749684681
 3144.71696424471 36543.2597196778 578839.097612000
 2373.26541126283 34264.4127714398 578982.139300269
 1738.78091838021 32328.2256900773 579095.728238993
 1479.63545691375 30743.5707279971 579182.737603434
 1132.47342885191 29187.8406973848 579264.004974724
 1019.94435200750 27917.6295075614 579326.821126208
 744.298862049905 26383.2913671156 579399.143903270
 567.144139863309 25140.3739615216 579454.605594432
 283.254634560301 23356.5943580704 579529.455046769
 -97.0736769965993 21885.3242974706 579586.941844876
 -389.022388258734 19640.0345664829 579667.247396132
 -1051.42472634793 17672.0807679743 579729.757790106
 -1288.12829417888 14809.9038672571 579809.457902283
 -2219.08970650236 12066.5099941208 579870.222530383
 -2286.45963280265 8530.54141937128 579932.756417018
 -3351.09061291251 4795.21903546603 579970.495858286
 -3145.11333179659 696.397204561350 579991.054494001
 -4131.42317412139 -4076.74406450180 579970.957462862
 -3693.74348268531 -8454.37995399329 579926.615804688
 -4439.35003945379 -14119.3037738352 579811.122204610
 -4066.37326341797 -18501.6563901236 579690.566871072
 -4518.17651946117 -24881.7148777967 579448.432861526
 -4603.94616228348 -29319.3440245047 579240.174492159
 -4603.96705309863 -36371.6868097550 578840.136726875
 -5130.23022293048 -41271.5882806248 578506.989360245
 -4051.83266392085 -48811.9454546240 577928.176015843
 -4188.62694181085 -54258.1072865726 577441.350440044
 -1060.76330673635 -61148.0981127549 576766.664153192
 305.892071965290 -65870.6614694102 576247.310091443
 5661.53855714189 -69541.5454501106 575788.086397744
 8369.24681071440 -70879.5092384914 575591.913492478
 13894.4661554356 -68433.3382204208 575781.053900061
 15336.2059292450 -64051.2429926224 576248.417836263
 16615.8816121574 -54398.3243161862 577204.240100366
 12031.6957819442 -43987.2234840715 578204.429649906
 2867.54963337485 -28549.4779371430 579289.827693027
 -15387.6596907824 -13721.4895576648 579633.453704632
 -45630.2907644427 3966.70175440671 578188.673221764
 -93556.4159216673 18437.5676797770 572107.728612318
 -167237.282708930 28133.2759129245 554653.234064799
 257163.830032272 359389.174122600 375641.033496885
 195039.626695817 352176.029407799 417530.344201369
 143063.127863464 341824.760586112 446193.651340054
 102122.832820680 330252.669826939 465729.643772928
 71069.4961864413 318806.049869093 479282.619420599
 48116.7800415250 308227.058036224 488958.951419001
 31485.9808112984 298846.295243984 496084.191273312
 19644.7229451011 290752.734273928 501474.757463070
 11358.7676175649 283904.393645905 505637.492346801
 5669.60567236892 278193.508413226 508897.069600780
 1849.10899464388 273482.759406314 511472.150858123
 -647.760628413393 269625.069031898 513519.135530229
 -2224.28469055615 266472.914025648 515157.489170346
 -3176.07180519866 263881.965847477 516484.482504904