# OOMMF OVF 2.0
#
# Segment count: 1
#
# Begin: Segment
# Begin: Header
#
# Title: Oxs_TimeDriver::Magnetization
# Desc: Oxs vector field output
# Desc:  MIF source file: C:/Users/Victor H. González/Documents/GitHub/Intro-to-magnetism-in-python/domain_wall_conversion_thin_film/drive-42/domain_wall_conversion_thin_film.mif
# Desc:  Iteration: 470, State id: 3313
# Desc:  Stage: 38, Stage iteration: 11
# Desc:  Stage simulation time: 2e-12 s
# Desc:  Total simulation time: 7.8e-11 s
# meshunit: m
# meshtype: rectangular
# xbase: 1.0000000000000001e-09
# ybase: 1.0000000000000001e-09
# zbase: 1.0000000000000001e-09
# xnodes: 75
# ynodes: 25
# znodes: 1
# xstepsize: 2.0000000000000001e-09
# ystepsize: 2.0000000000000001e-09
# zstepsize: 2.0000000000000001e-09
# xmin: 0
# ymin: 0
# zmin: 0
# xmax: 1.5000000000000002e-07
# ymax: 5.0000000000000004e-08
# zmax: 2.0000000000000001e-09
# valuedim: 3
# valuelabels: Magnetization_x Magnetization_y Magnetization_z
# valueunits: A/m A/m A/m
#
# End: Header
#
# Begin: Data Text
 0.000000000000000 -0.000000000000000 -0.000000000000000
 -0.000000000000000 0.000000000000000 0.000000000000000
 0.000000000000000 0.000000000000000 -0.000000000000000
 0.000000000000000 0.000000000000000 0.000000000000000
 0.000000000000000 0.000000000000000 0.000000000000000
 0.000000000000000 -0.000000000000000 0.000000000000000
 -0.000000000000000 -0.000000000000000 0.000000000000000
 -0.000000000000000 -0.000000000000000 -0.000000000000000
 -0.000000000000000 0.000000000000000 -0.000000000000000
 -0.000000000000000 -0.000000000000000 -0.000000000000000
 0.000000000000000 -0.000000000000000 -0.000000000000000
 0.000000000000000 0.000000000000000 0.000000000000000
 0.000000000000000 0.000000000000000 -0.000000000000000
 0.000000000000000 0.000000000000000 0.000000000000000
 0.000000000000000 0.000000000000000 -0.000000000000000
 -0.000000000000000 0.000000000000000 -0.000000000000000
 0.000000000000000 -0.000000000000000 -0.000000000000000
 -0.000000000000000 -0.000000000000000 0.000000000000000
 0.000000000000000 -0.000000000000000 -0.000000000000000
 -0.000000000000000 -0.000000000000000 -0.000000000000000
 0.000000000000000 -0.000000000000000 0.000000000000000
 0.000000000000000 -0.000000000000000 0.000000000000000
 0.000000000000000 0.000000000000000 -0.000000000000000
 -0.000000000000000 -0.000000000000000 0.000000000000000
 0.000000000000000 -0.000000000000000 0.000000000000000
 249506.184747081 340137.274476185 398061.927700789
 186469.519540981 338930.748035962 432151.670502313
 135554.565408771 333367.547900715 454852.764972913
 96541.0751982522 325621.120720677 470160.298770723
 67630.5431477796 317250.133470993 480810.214581776
 46693.5662915903 309173.110846011 488499.435410905
 31784.5395830488 301847.031737824 494244.992361640
 21311.8666954977 295452.101606316 498652.043006308
 14039.5098030324 289996.252262310 502100.653094880
 9041.05366066937 285413.209821218 504834.189618981
 5639.91481937098 281582.539935237 507030.043059039
 3341.79676976317 278387.611450234 508811.527174241
 1806.74671030533 275696.425778552 510282.486941553
 778.331030304583 273404.977349626 511516.483176503
 103.539305880206 271406.749733496 512580.106401635
 -354.289063598507 269622.077986969 513520.992308248
 -647.073006277229 267980.255159601 514379.397080714
 -854.516790119822 266419.705696239 515189.101415961
 -976.299518642326 264909.282484770 515967.168425138
 -1063.08697146414 263395.062116967 516741.628958313
 -1094.45386779582 261888.019846689 517506.973123562
 -1098.25314023299 260333.766325909 518290.578682082
 -1060.93389063410 258784.778729924 519065.807693960
 -980.930017287355 257184.158740702 519860.891267210
 -876.584279861733 255616.710164667 520633.584284181
 -704.734665610888 254029.427222511 521410.158564305
 -533.990877901258 252517.704949925 522144.159730399
 -269.440152635365 251049.112399996 522852.054184717
 -33.4451733326407 249698.315096226 523498.567638467
 317.805894271910 248480.526092468 524077.596499053
 622.239223886040 247418.454975732 524579.565896127
 1043.10895281095 246603.500510013 524962.499098669
 1404.91695922341 245982.184027062 525253.073622244
 1833.21181686997 245730.109440484 525369.729475160
 2176.58905945291 245702.636788128 525381.267971582
 2464.87659642510 246132.375041903 525178.806064750
 2622.95670560888 246793.670279844 524867.606552285
 2556.42066931077 247936.040476501 524329.271113293
 2305.79090891679 249319.228963939 523674.140470112
 1633.20888275298 251198.060443507 522778.028476872
 640.459118528089 253437.559549582 521698.182114591
 -1141.40459432202 256312.771134201 520290.746168966
 -3787.31024067632 259890.279886490 518500.432691876
 -8239.16516707218 264445.016046942 516140.435971919
 -15227.7165298249 270208.092133131 512987.040377299
 -26659.7112981081 277320.686552648 508706.690150099
 -44718.8274296199 285894.420601552 502657.544201042
 -73121.6528575969 295509.506056055 493687.508160658
 -116417.207660280 305247.507866137 479240.015756297
 -180019.495852082 312690.013189803 454112.251282129
 -0.000000000000000 -0.000000000000000 -0.000000000000000
 -0.000000000000000 -0.000000000000000 -0.000000000000000
 0.000000000000000 0.000000000000000 -0.000000000000000
 0.000000000000000 -0.000000000000000 0.000000000000000
 -0.000000000000000 -0.000000000000000 -0.000000000000000
 -0.000000000000000 -0.000000000000000 -0.000000000000000
 0.000000000000000 0.000000000000000 0.000000000000000
 0.000000000000000 0.000000000000000 -0.000000000000000
 0.000000000000000 0.000000000000000 -0.000000000000000
 0.000000000000000 0.000000000000000 -0.000000000000000
 -0.000000000000000 0.000000000000000 0.000000000000000
 -0.000000000000000 -0.000000000000000 0.000000000000000
 0.000000000000000 -0.000000000000000 -0.000000000000000
 -0.000000000000000 -0.000000000000000 -0.000000000000000
 -0.000000000000000 0.000000000000000 0.000000000000000
 -0.000000000000000 0.000000000000000 0.000000000000000
 -0.000000000000000 -0.000000000000000 -0.000000000000000
 0.000000000000000 0.000000000000000 -0.000000000000000
 0.000000000000000 -0.000000000000000 0.000000000000000
 -0.000000000000000 -0.000000000000000 -0.000000000000000
 -0.000000000000000 0.000000000000000 0.000000000000000
 0.000000000000000 -0.000000000000000 -0.000000000000000
 0.000000000000000 0.000000000000000 -0.000000000000000
 0.000000000000000 -0.000000000000000 0.000000000000000
 -0.000000000000000 0.000000000000000 0.000000000000000
 247593.528894537 274884.233230097 446694.641529369
 181865.677389829 271627.236590377 479107.002380276
 130649.762253836 263701.924122407 499791.891528021
 92212.4529728536 254034.845162760 513189.205809964
 64118.4031824117 244248.204154327 522141.403396363
 43965.7129040066 235155.920543409 528364.182285500
 29722.0096253009 227118.762129248 532854.267161962
 19769.9020274823 220211.285563471 536205.315792661
 12889.3788513684 214399.055789136 538764.242307852
 8177.35219735267 209541.219543721 540763.911724119
 4971.48453172088 205517.980439346 542344.580555280
 2816.53981826046 202152.601338740 543623.392502045
 1356.55829932491 199335.603220824 544668.226572994
 395.490554822305 196913.396292349 545550.142468897
 -275.876850716812 194802.813861034 546307.411265659
 -702.612283158138 192896.137187239 546983.168474333
 -1033.88007732717 191121.645602092 547605.193249968
 -1226.61282283434 189434.075759076 548190.866726442
 -1405.84198447464 187747.462096170 548770.365530758
 -1487.64605718069 186096.579878924 549332.185354705
 -1571.21817200861 184356.940883210 549918.220848919
 -1582.25696695665 182656.147509225 550485.447800374
 -1564.07802887912 180820.037878518 551091.342303189
 -1511.51700660802 179063.277021623 551664.805963382
 -1365.65367203705 177175.692957071 552274.305771353
 -1249.45099294344 175419.896959904 552834.784201205
 -957.650705964974 173596.860067520 553410.528522744
 -776.550083121175 171940.349631862 553927.714723177
 -339.081535459761 170343.785044102 554421.211643784
 -82.0397689582973 168913.091092956 554858.865772999
 479.448694295469 167732.475113020 555216.702667895
 827.596623618557 166688.045045487 555530.746874322
 1445.51174264043 166125.748504611 555697.891105936
 1853.55864313833 165654.980023458 555837.199109401
 2368.60482548408 165873.861413328 555769.963034179
 2704.34828531650 166124.422315868 555693.587159840
 2875.05413150758 167159.572013507 555382.221130639
 2936.20624365612 168172.977900568 555075.876071866
 2535.48908491353 169946.247434078 554537.504843609
 2106.59325785909 171762.466289557 553979.437740224
 897.778083754115 174333.994157167 553178.861197463
 -478.896216725172 177292.888865650 552238.175261440
 -3263.94264228555 181198.962017612 550959.420322557
 -7151.85642775044 186142.287040363 549272.154696577
 -14107.6440641944 192415.773341637 546970.880896139
 -24905.4693612230 200399.444302855 543709.279228343
 -42794.9450433274 209920.143217414 538982.491506282
 -70799.6415941764 221040.000133277 531534.316005295
 -114532.103232656 232378.335094141 518924.567454634
 -180393.413097041 241426.687843463 495551.582489790
 -0.000000000000000 0.000000000000000 -0.000000000000000
 -0.000000000000000 -0.000000000000000 0.000000000000000
 -0.000000000000000 -0.000000000000000 -0.000000000000000
 0.000000000000000 0.000000000000000 0.000000000000000
 0.000000000000000 -0.000000000000000 -0.000000000000000
 -0.000000000000000 0.000000000000000 0.000000000000000
 0.000000000000000 0.000000000000000 -0.000000000000000
 -0.000000000000000 0.000000000000000 0.000000000000000
 0.000000000000000 0.000000000000000 0.000000000000000
 0.000000000000000 -0.000000000000000 -0.000000000000000
 -0.000000000000000 0.000000000000000 0.000000000000000
 -0.000000000000000 0.000000000000000 0.000000000000000
 -0.000000000000000 0.000000000000000 -0.000000000000000
 -0.000000000000000 -0.000000000000000 0.000000000000000
 -0.000000000000000 0.000000000000000 0.000000000000000
 0.000000000000000 0.000000000000000 -0.000000000000000
 -0.000000000000000 0.000000000000000 -0.000000000000000
 -0.000000000000000 0.000000000000000 0.000000000000000
 0.000000000000000 -0.000000000000000 0.000000000000000
 0.000000000000000 0.000000000000000 -0.000000000000000
 -0.000000000000000 -0.000000000000000 0.000000000000000
 -0.000000000000000 0.000000000000000 -0.000000000000000
 -0.000000000000000 -0.000000000000000 -0.000000000000000
 -0.000000000000000 0.000000000000000 -0.000000000000000
 0.000000000000000 -0.000000000000000 0.000000000000000
 244150.554383860 221735.342506082 477099.512342828
 175991.121322272 218099.202839992 507799.037943446
 124377.460761384 209169.714210323 526477.233991863
 86573.9542698921 198508.116039198 538051.557295993
 59464.9261686730 187941.413281624 545474.057796941
 40316.1856163615 178323.088516887 550432.085982590
 26931.0159870509 169941.860001950 553890.318201161
 17665.4212468103 162849.637531759 556388.289280021
 11297.9755231851 156913.272930136 558256.733526279
 6950.81254487605 152012.260635462 559682.015810283
 4006.59796813594 147929.872888270 560803.619710128
 2000.29459350535 144549.075797663 561695.258576731
 660.038642472432 141665.532944135 562432.610296243
 -287.486324091666 139197.739651190 563048.760435198
 -908.598487851688 136986.605686437 563590.138585920
 -1406.77161330219 134968.154130665 564075.897698341
 -1717.59256158294 133053.829983978 564529.652190554
 -2030.05915262212 131158.954887465 564971.864266412
 -2202.24125819924 129297.423843955 565400.147082363
 -2412.80547055626 127320.870016671 565847.660088790
 -2503.35737233307 125378.575897769 566280.801288295
 -2602.33699050220 123227.285503225 566752.383276589
 -2618.06433559742 121166.158386120 567196.533664553
 -2555.31325182078 118857.924780364 567685.004285907
 -2488.35581033534 116720.867185551 568128.548172695
 -2213.35737064811 114376.191392236 568606.355831305
 -2055.68362196328 112265.725569651 569027.399188445
 -1543.43403840725 110083.577457228 569455.199103132
 -1279.64667869342 108141.871327051 569827.779395021
 -540.293660849054 106371.543612872 570162.084667312
 -141.330101388003 104783.252187933 570456.352481697
 758.076935121332 103703.873639643 570653.074916357
 1289.59247932085 102703.667476688 570832.982261953
 2166.20918586158 102567.951173257 570854.730145843
 2710.20060472044 102373.050813825 570887.391067408
 3248.14579099693 103268.840992612 570723.221911430
 3575.99032071711 103941.211561430 570599.191054780
 3472.27612075555 105702.570550096 570276.169831463
 3401.02026585638 107164.052886786 570003.770891061
 2537.18447548176 109595.270012338 569545.818600980
 1922.78349826279 111976.355917762 569084.878220286
 94.8572798105863 115355.777660095 568412.733462694
 -1803.47474061119 119402.128344846 567573.677354387
 -5957.72851683829 124749.353874981 566393.947865525
 -11915.7727826349 131720.030249016 564719.264759217
 -22827.9372057917 140333.084936951 562303.752926305
 -40033.8226669237 151099.050508910 558539.497240776
 -68426.4842095514 163099.089688723 552373.517831394
 -112785.740011288 175660.508939219 541131.003038378
 -181060.251612449 184948.675220573 519048.333799649
 0.000000000000000 -0.000000000000000 0.000000000000000
 0.000000000000000 -0.000000000000000 0.000000000000000
 0.000000000000000 0.000000000000000 0.000000000000000
 -0.000000000000000 -0.000000000000000 -0.000000000000000
 0.000000000000000 0.000000000000000 -0.000000000000000
 -0.000000000000000 0.000000000000000 0.000000000000000
 0.000000000000000 0.000000000000000 -0.000000000000000
 -0.000000000000000 0.000000000000000 0.000000000000000
 -0.000000000000000 0.000000000000000 0.000000000000000
 -0.000000000000000 0.000000000000000 0.000000000000000
 -0.000000000000000 -0.000000000000000 -0.000000000000000
 -0.000000000000000 0.000000000000000 0.000000000000000
 0.000000000000000 0.000000000000000 -0.000000000000000
 -0.000000000000000 0.000000000000000 0.000000000000000
 -0.000000000000000 0.000000000000000 0.000000000000000
 0.000000000000000 0.000000000000000 0.000000000000000
 0.000000000000000 -0.000000000000000 0.000000000000000
 0.000000000000000 0.000000000000000 -0.000000000000000
 0.000000000000000 0.000000000000000 -0.000000000000000
 -0.000000000000000 0.000000000000000 0.000000000000000
 0.000000000000000 0.000000000000000 -0.000000000000000
 0.000000000000000 -0.000000000000000 0.000000000000000
 0.000000000000000 -0.000000000000000 0.000000000000000
 -0.000000000000000 0.000000000000000 0.000000000000000
 0.000000000000000 0.000000000000000 -0.000000000000000
 236787.941491855 181390.131988873 497422.447001650
 167281.117566673 177570.425873303 526199.364842660
 116048.183214122 167985.447872142 542875.407875415
 79470.7095233144 156691.492565934 552749.656250749
 53811.5201482222 145704.767933522 558815.211765729
 35979.3965379188 135854.879975194 562715.678306277
 23681.0228303191 127414.194909469 565336.034667242
 15233.2788587800 120318.847157309 567178.386606848
 9461.58977111496 114459.464984134 568515.179387981
 5528.85452210861 109591.218870270 569525.413405058
 2839.69810151716 105582.568127477 570301.900244334
 1013.27560381271 102181.387330480 570927.261002458
 -283.806805471023 99303.5671369229 571435.666551870
 -1168.62648466557 96734.0045636805 571875.132063996
 -1882.22805335836 94422.5098980216 572259.422676563
 -2368.18510440328 92218.9073572796 572616.856916683
 -2858.92658946023 90062.1169154989 572957.800920325
 -3177.73169983248 87907.3008024482 573290.684109616
 -3570.25048904595 85624.1725517808 573633.815588193
 -3798.21119105327 83325.4645387969 573970.766286177
 -4086.09816430377 80757.2128579244 574335.769714208
 -4224.59233189332 78233.6446338759 574683.956333331
 -4331.44932212547 75351.6125867575 575068.146420357
 -4353.40003907233 72627.0269950658 575418.424155812
 -4182.83349096453 69540.7025781058 575800.828923448
 -4059.88907495269 66729.0187429023 576134.320587056
 -3538.85000269160 63672.8649157706 576483.514780845
 -3244.16831378238 60953.0493835100 576779.161501872
 -2347.28074337333 58253.1860998535 577062.437334408
 -1841.41489151611 55860.5814894741 577300.792158520
 -612.850946537111 53906.4819231384 577489.147621310
 126.038181791391 52150.3594102427 577650.693869366
 1499.51425956667 51344.0214453076 577720.990547175
 2358.59658022806 50556.8198367359 577787.543124779
 3470.49426566225 51135.0775481653 577731.044270338
 4146.59338709248 51462.1887920522 577697.541009145
 4509.85771278245 53254.3095272593 577532.371127528
 4727.94217237698 54508.5421995090 577413.599935176
 4154.12022259281 57030.8145675293 577174.349287059
 3933.05194822646 59027.2570142492 576975.141606419
 2597.22430450249 62144.7532468271 576655.255824312
 1872.43091386764 65391.7495094942 576298.892154549
 -589.487961608437 69967.7574312042 575763.984132380
 -3326.81474248792 75861.3383583679 575007.817030469
 -9622.59493461989 83480.2971389591 573880.166634390
 -19339.7525333936 93424.6739783341 572099.470602787
 -36971.1098069014 105048.112494432 569208.249326205
 -65142.2120829982 118619.202748878 563991.114242196
 -110692.077767554 131754.518520001 553884.474208354
 -180662.555958051 141409.497544147 532695.405348137
 -0.000000000000000 0.000000000000000 -0.000000000000000
 0.000000000000000 0.000000000000000 -0.000000000000000
 -0.000000000000000 0.000000000000000 0.000000000000000
 0.000000000000000 0.000000000000000 -0.000000000000000
 0.000000000000000 0.000000000000000 0.000000000000000
 -0.000000000000000 0.000000000000000 0.000000000000000
 0.000000000000000 0.000000000000000 0.000000000000000
 0.000000000000000 0.000000000000000 0.000000000000000
 -0.000000000000000 -0.000000000000000 0.000000000000000
 -0.000000000000000 -0.000000000000000 0.000000000000000
 -0.000000000000000 -0.000000000000000 -0.000000000000000
 0.000000000000000 0.000000000000000 0.000000000000000
 -0.000000000000000 -0.000000000000000 0.000000000000000
 0.000000000000000 0.000000000000000 -0.000000000000000
 0.000000000000000 0.000000000000000 0.000000000000000
 0.000000000000000 0.000000000000000 -0.000000000000000
 -0.000000000000000 -0.000000000000000 0.000000000000000
 0.000000000000000 -0.000000000000000 -0.000000000000000
 0.000000000000000 -0.000000000000000 -0.000000000000000
 0.000000000000000 0.000000000000000 -0.000000000000000
 0.000000000000000 -0.000000000000000 0.000000000000000
 0.000000000000000 -0.000000000000000 0.000000000000000
 -0.000000000000000 0.000000000000000 -0.000000000000000
 0.000000000000000 0.000000000000000 0.000000000000000
 -0.000000000000000 0.000000000000000 -0.000000000000000
 222593.433857747 151983.792998006 513568.972845280
 153407.226996642 147431.817098141 539564.715314429
 104289.008505571 136944.366732348 553868.254303495
 70286.7076968005 125093.140857900 561971.071169549
 46941.3135264868 113893.304437209 566766.996471020
 30971.4211524870 104089.132127316 569742.243163325
 20041.6681051138 95784.9286856801 571684.859845216
 12578.6496117292 88906.5578492544 573007.331144500
 7469.11805777620 83198.1456596425 573953.204394083
 3962.36754078224 78506.1921473565 574648.655647949
 1543.06284895956 74539.2683380051 575188.244344996
 -181.457813164736 71201.0082556538 575613.050144314
 -1403.12269725610 68225.3242809932 575971.645459609
 -2385.75000125926 65571.2587782248 576276.598708616
 -3110.64033668860 63022.5909514307 576557.435947595
 -3829.43956939494 60549.1933850945 576818.108742261
 -4363.93257362613 58025.1594593119 577073.684170587
 -5000.37501249682 55364.8247376870 577329.829847289
 -5447.60414408474 52596.9252571255 577584.528067179
 -6010.58039083479 49506.7677534064 577852.016410755
 -6365.73824753122 46350.6199735199 578109.935396923
 -6756.70149295798 42729.1255058873 578384.447248054
 -6961.90437204743 39170.1841029457 578633.933125992
 -7028.50697497122 35087.6432418640 578895.031401578
 -7013.03020984250 31244.1119864510 579115.379586360
 -6608.41991420935 26954.9318129286 579335.619858816
 -6311.30427270416 23058.7823530330 579507.083645034
 -5342.62533114172 18974.6857599279 579664.918426916
 -4704.59786411860 15346.8269384430 579777.838194819
 -3162.03261771347 11996.9853219691 579867.289897360
 -2133.10216537651 9059.45308916055 579925.319489396
 -165.311813413994 7049.72277221738 579957.131244060
 1166.51465700497 5310.01522608868 579974.519252229
 3098.17980882644 5146.01609874573 579968.895545428
 4341.05177316002 4950.43714037248 579962.626762813
 5494.99095796800 6628.66770975391 579936.087718953
 6139.51516904472 7781.13008951647 579915.304478179
 6022.56038722142 10591.3959197959 579872.012688018
 6017.15514547291 12504.9915304488 579833.958155935
 4929.73948903262 15716.2599518024 579766.070792089
 4749.04182018127 18404.7810208077 579688.459982917
 3210.16423056160 22468.6876113967 579555.737546126
 2537.39560537080 27334.3095575797 579349.978117331
 -684.660251370523 34079.7047356507 578997.499964784
 -5138.87539035146 43122.2866763898 578371.904877408
 -15304.3848995636 54218.3197261671 577257.437898307
 -31949.0681314747 67984.9328225279 575115.037148783
 -61003.7330203588 82615.6638357263 570835.525039011
 -107047.789469863 97283.9154949108 561673.045957873
 -178564.851093786 106948.662782067 541365.474963985
 -0.000000000000000 -0.000000000000000 0.000000000000000
 0.000000000000000 -0.000000000000000 -0.000000000000000
 0.000000000000000 0.000000000000000 0.000000000000000
 -0.000000000000000 0.000000000000000 0.000000000000000
 -0.000000000000000 -0.000000000000000 -0.000000000000000
 0.000000000000000 0.000000000000000 -0.000000000000000
 -0.000000000000000 -0.000000000000000 -0.000000000000000
 -0.000000000000000 0.000000000000000 0.000000000000000
 0.000000000000000 -0.000000000000000 0.000000000000000
 0.000000000000000 -0.000000000000000 0.000000000000000
 -0.000000000000000 -0.000000000000000 -0.000000000000000
 0.000000000000000 0.000000000000000 0.000000000000000
 -0.000000000000000 0.000000000000000 0.000000000000000
 -0.000000000000000 -0.000000000000000 -0.000000000000000
 0.000000000000000 -0.000000000000000 0.000000000000000
 -0.000000000000000 -0.000000000000000 0.000000000000000
 -0.000000000000000 -0.000000000000000 -0.000000000000000
 -0.000000000000000 -0.000000000000000 -0.000000000000000
 -0.000000000000000 0.000000000000000 -0.000000000000000
 -0.000000000000000 0.000000000000000 0.000000000000000
 0.000000000000000 0.000000000000000 0.000000000000000
 -0.000000000000000 0.000000000000000 -0.000000000000000
 -0.000000000000000 0.000000000000000 -0.000000000000000
 -0.000000000000000 -0.000000000000000 0.000000000000000
 -0.000000000000000 -0.000000000000000 0.000000000000000
 196773.053960874 131422.070240530 529536.216597698
 131363.292285066 124754.248372160 550981.000537338
 87733.6541651047 112760.716021373 562127.945266187
 58520.1259276894 100356.516633057 568246.394120268
 38783.1549362020 89218.9331039529 571783.043530487
 25323.5562889278 79721.7228859957 573936.550845972
 16114.4744024393 71832.6678439687 575308.953124451
 9763.90798734206 65289.7476385222 576230.782720008
 5371.50958096968 59907.0686578077 576872.854283897
 2290.22175688252 55364.1653981305 577347.004906125
 76.3433537673121 51541.9738426746 577705.304722134
 -1546.24802195875 48136.0557347881 577996.997617940
 -2850.94911429654 45104.3030045912 578236.520759125
 -3879.11590742608 42172.8008918034 578451.732925675
 -4879.10644463693 39336.9229852700 578643.932665290
 -5705.46179053437 36385.1395206501 578829.482082434
 -6653.56174365487 33284.3054558770 579005.945674518
 -7419.78411614958 29951.1324236309 579178.622248968
 -8356.36630805603 26240.6054886939 579345.839517048
 -9058.05579934549 22290.8034577381 579500.708978293
 -9874.45782008324 17764.4980728486 579643.785174118
 -10417.4395770447 13109.9323704662 579758.231184259
 -10903.0663434695 7756.49125584840 579845.634619860
 -11149.7957806900 2489.09438964605 579887.477415377
 -11058.2463716972 -3453.76684207760 579884.287320999
 -10873.9703084084 -9052.60842866659 579827.394187588
 -10001.9945278690 -15094.5679896610 579717.270850774
 -9274.89856976427 -20583.6158982518 579560.429129762
 -7517.11828724488 -26029.8929487725 579366.841997133
 -6154.33092293372 -30823.0400771449 579147.705176576
 -3570.32782822907 -34818.6270529033 578942.929803405
 -1602.19580938046 -38170.3814700849 578740.403762357
 1376.75677592645 -39830.7283869412 578629.084662140
 3514.16302474151 -41045.2716933624 578535.164298467
 5910.20413991628 -39962.0325901689 578591.484069967
 7370.78008218792 -39015.5862839529 578639.313932176
 8151.71218813143 -35895.7082223170 578830.759133980
 8479.67284144561 -33733.4500220761 578956.085984170
 7669.57303062788 -30016.9982251826 579171.958460591
 7589.84077503672 -27462.8166644377 579299.739355944
 6413.87200442513 -23544.6868977636 579486.419137496
 6858.83603864508 -19573.7817563842 579629.039503672
 5641.53029325477 -13572.4648488927 579813.729859751
 4958.77845044946 -5468.06727861929 579953.024611922
 170.640190474418 5227.36264462945 579976.418108277
 -8128.78910056296 19103.6828031769 579628.305115540
 -25544.2225966757 34728.6421567655 578395.551595860
 -54276.9489020057 52153.5583700594 575094.791462443
 -101617.869694421 67836.8752225557 566984.979447258
 -174121.124567571 78370.1597683498 547667.738722310
 0.000000000000000 -0.000000000000000 0.000000000000000
 0.000000000000000 -0.000000000000000 0.000000000000000
 0.000000000000000 -0.000000000000000 0.000000000000000
 0.000000000000000 -0.000000000000000 -0.000000000000000
 -0.000000000000000 0.000000000000000 -0.000000000000000
 0.000000000000000 0.000000000000000 -0.000000000000000
 -0.000000000000000 -0.000000000000000 -0.000000000000000
 0.000000000000000 -0.000000000000000 0.000000000000000
 0.000000000000000 -0.000000000000000 0.000000000000000
 -0.000000000000000 -0.000000000000000 0.000000000000000
 0.000000000000000 0.000000000000000 -0.000000000000000
 0.000000000000000 0.000000000000000 0.000000000000000
 0.000000000000000 -0.000000000000000 -0.000000000000000
 0.000000000000000 -0.000000000000000 0.000000000000000
 -0.000000000000000 0.000000000000000 0.000000000000000
 -0.000000000000000 0.000000000000000 0.000000000000000
 0.000000000000000 -0.000000000000000 0.000000000000000
 0.000000000000000 -0.000000000000000 -0.000000000000000
 0.000000000000000 -0.000000000000000 -0.000000000000000
 0.000000000000000 0.000000000000000 0.000000000000000
 0.000000000000000 -0.000000000000000 0.000000000000000
 -0.000000000000000 -0.000000000000000 -0.000000000000000
 -0.000000000000000 -0.000000000000000 0.000000000000000
 0.000000000000000 0.000000000000000 0.000000000000000
 -0.000000000000000 0.000000000000000 -0.000000000000000
 149764.243271113 119017.250612426 547545.035128701
 97954.2444906571 106829.012574496 561598.190932470
 65930.8905847277 92499.7649931632 568767.888635526
 44502.1714599710 79768.1176041812 572762.257965059
 29686.9223827760 69084.3041866763 575105.247371715
 19345.7612870273 60278.3631466020 576534.700132257
 12056.9118872835 53006.1918719512 577446.945181093
 6910.18969940941 47014.4735511754 578050.074435618
 3208.69434427999 41956.4244547454 578471.574692809
 500.595337742449 37681.1385960975 578774.464881105
 -1554.24988779153 33863.1336884303 579008.525398448
 -3220.77721676475 30448.5039122496 579191.259605690
 -4607.70763685063 27123.7147158408 579347.109365661
 -5941.32722007399 23896.7447029565 579477.045467261
 -7135.80716831368 20481.6822121066 579594.324463084
 -8466.63053449521 16889.7668937168 579692.204485853
 -9660.94819932008 12919.3836914562 579775.607976848
 -11078.5768222424 8502.60872658485 579831.846987069
 -12283.6808084622 3621.91888083545 579858.597323017
 -13690.0504386546 -1963.43862713216 579835.086406251
 -14782.3304166793 -7963.72932321073 579756.898814252
 -15919.2859908516 -14865.4626052417 579590.885327809
 -16678.3760394898 -21977.4921071194 579343.440122840
 -17182.0934201850 -30037.8066284546 578966.757110157
 -17350.2997379577 -37970.3936221077 578495.649341622
 -16854.1081468317 -46656.7701620521 577874.627264964
 -16202.5572109913 -54833.3422144821 577174.827692107
 -14443.2131822554 -63268.6962450439 576357.931903799
 -12795.1301457842 -70875.9112323497 575510.981521236
 -9687.50138208563 -77912.0405008524 574661.523213418
 -6976.84589567570 -83899.7880941039 573857.255054873
 -2814.08695365332 -88198.5403728516 573247.850751065
 580.695358724434 -91386.4024681924 572754.911141599
 4723.67799575171 -91875.2904764818 572657.504854389
 7638.10239578002 -91681.7856561913 572657.061050227
 10061.7018990993 -88631.3178572264 573099.687357955
 11271.0714500076 -86052.2638975486 573470.113280959
 11172.3360032967 -81475.0772910469 574140.218664960
 11077.8898306082 -78429.1214164797 574566.056490235
 9923.11918101423 -74108.2050154802 575160.417322943
 10615.5674155191 -70695.6077012320 575577.484601509
 10502.1865039070 -65321.5215471105 576214.198802327
 12431.4842245649 -58311.1044677331 576927.441967989
 11770.6855289544 -48021.5386578863 577888.728724749
 9938.42068810202 -33996.4740963836 578917.496318120
 1150.30416511235 -17086.8712400071 579747.113517226
 -15108.6519682219 2839.45364527077 579796.228116999
 -45225.8846736427 22698.8691214944 577788.352856037
 -93141.8388929142 41169.0660996718 570990.110110611
 -166975.638898647 52187.7543061404 552987.860910952
 273512.039454262 368158.890839462 355035.484662347
 213454.071388092 360763.463250379 400857.933676558
 161850.839491338 349947.093683170 433291.284678854
 120314.472303378 337658.445552733 455972.808291538
 88201.2376219304 325357.868466087 471977.540894865
 64021.5706373878 313888.434418906 483503.142938254
 46151.9404905334 303646.569888431 492004.836342031
 33132.7314053218 294756.699166433 498418.208341280
 23758.7161385478 287192.007884835 503345.084424716
 17078.5597305140 280847.924995447 507181.196243791
 12361.2226179276 275584.302682653 510196.523204839
 9054.41707049776 271248.540674998 512583.892366116