# OOMMF OVF 2.0
#
# Segment count: 1
#
# Begin: Segment
# Begin: Header
#
# Title: Oxs_TimeDriver::Magnetization
# Desc: Oxs vector field output
# Desc:  MIF source file: C:/Users/Victor H. González/Documents/GitHub/Intro-to-magnetism-in-python/domain_wall_conversion_thin_film/drive-42/domain_wall_conversion_thin_film.mif
# Desc:  Iteration: 998, State id: 7020
# Desc:  Stage: 82, Stage iteration: 11
# Desc:  Stage simulation time: 2e-12 s
# Desc:  Total simulation time: 1.66e-10 s
# meshunit: m
# meshtype: rectangular
# xbase: 1.0000000000000001e-09
# ybase: 1.0000000000000001e-09
# zbase: 1.0000000000000001e-09
# xnodes: 75
# ynodes: 25
# znodes: 1
# xstepsize: 2.0000000000000001e-09
# ystepsize: 2.0000000000000001e-09
# zstepsize: 2.0000000000000001e-09
# xmin: 0
# ymin: 0
# zmin: 0
# xmax: 1.5000000000000002e-07
# ymax: 5.0000000000000004e-08
# zmax: 2.0000000000000001e-09
# valuedim: 3
# valuelabels: Magnetization_x Magnetization_y Magnetization_z
# valueunits: A/m A/m A/m
#
# End: Header
#
# Begin: Data Text
 0.000000000000000 -0.000000000000000 -0.000000000000000
 -0.000000000000000 0.000000000000000 0.000000000000000
 0.000000000000000 0.000000000000000 -0.000000000000000
 0.000000000000000 0.000000000000000 0.000000000000000
 0.000000000000000 0.000000000000000 0.000000000000000
 0.000000000000000 -0.000000000000000 0.000000000000000
 -0.000000000000000 -0.000000000000000 0.000000000000000
 -0.000000000000000 -0.000000000000000 -0.000000000000000
 -0.000000000000000 0.000000000000000 -0.000000000000000
 -0.000000000000000 -0.000000000000000 -0.000000000000000
 0.000000000000000 -0.000000000000000 -0.000000000000000
 0.000000000000000 0.000000000000000 0.000000000000000
 0.000000000000000 0.000000000000000 -0.000000000000000
 0.000000000000000 0.000000000000000 0.000000000000000
 0.000000000000000 0.000000000000000 -0.000000000000000
 -0.000000000000000 0.000000000000000 -0.000000000000000
 0.000000000000000 -0.000000000000000 -0.000000000000000
 -0.000000000000000 -0.000000000000000 0.000000000000000
 0.000000000000000 -0.000000000000000 -0.000000000000000
 -0.000000000000000 -0.000000000000000 -0.000000000000000
 0.000000000000000 -0.000000000000000 0.000000000000000
 0.000000000000000 -0.000000000000000 0.000000000000000
 0.000000000000000 0.000000000000000 -0.000000000000000
 -0.000000000000000 -0.000000000000000 0.000000000000000
 0.000000000000000 -0.000000000000000 0.000000000000000
 250560.118354003 337614.433585146 399544.892753504
 187306.299841536 336489.601936339 433694.705787835
 136216.800599748 331029.092718268 456360.299553421
 97074.6818719122 323406.434280620 471576.912502470
 68070.5060133145 315188.738789038 482102.131453146
 47078.9494630566 307291.972343539 489648.053453369
 32136.5861933862 300182.959042544 495234.723064020
 21665.9500937961 294039.285861923 499471.205352564
 14406.2361662853 288877.918876129 502734.530687239
 9456.53313250148 284634.092987589 505266.273454152
 6105.90735519297 281192.134692316 507241.265358555
 3896.43712749637 278446.098963535 508775.576998052
 2443.00574486255 276258.861195309 509975.561506629
 1534.43999611770 274552.055491654 510900.004227056
 963.491918038926 273196.240155532 511627.683035433
 642.720399107355 272158.672994110 512180.870029889
 463.254573959687 271318.328065234 512626.716286896
 388.818624322230 270687.677850313 512960.066554974
 372.894660285188 270148.364754693 513244.310216818
 386.402619040123 269750.690671911 513453.421037433
 433.594400238950 269375.672623212 513650.230209905
 464.133875727343 269100.160792313 513794.597131282
 533.490278103271 268807.261373444 513947.829668568
 551.201021443504 268585.350337790 514063.814872590
 628.044204204555 268329.440166300 514197.352288514
 622.795695162496 268120.526560303 514306.324443466
 702.959345412779 267881.915683491 514430.544483803
 675.257406197331 267665.347347648 514543.298330373
 757.658052687010 267443.210610024 514658.678206127
 714.627210321309 267215.772700342 514776.864406424
 797.238518667761 267025.838691567 514875.291582155
 749.252559503494 266804.119621901 514990.291533136
 825.331159394118 266680.689070934 515054.102891268
 779.650958278937 266508.686346203 515143.195865387
 830.419987123578 266513.084257897 515140.841248282
 775.906547307432 266477.926464436 515159.113940775
 750.099691884347 266719.136487842 515034.309130598
 617.086550016158 266981.704761801 514898.425445905
 370.020455211065 267658.401497241 514547.221538319
 -77.6762743155341 268507.104178143 514104.978552303
 -954.430427343093 269976.562185269 513333.950692123
 -2397.90889424833 271900.885390421 512312.559436952
 -5009.10849846851 274754.402238102 510768.956851172
 -9240.90948860618 278489.914743931 508682.585683589
 -16388.9420972173 283538.550584560 505704.748751028
 -27782.4999428218 289911.219842755 501577.129967279
 -46062.5296570323 297772.950118988 495590.066021333
 -74390.2599464717 306780.046120913 486571.775308790
 -117522.942301287 316012.691273050 471936.793423878
 -180373.429661334 323246.369606299 446516.752662827
 -0.000000000000000 -0.000000000000000 -0.000000000000000
 -0.000000000000000 -0.000000000000000 -0.000000000000000
 0.000000000000000 0.000000000000000 -0.000000000000000
 0.000000000000000 -0.000000000000000 0.000000000000000
 -0.000000000000000 -0.000000000000000 -0.000000000000000
 -0.000000000000000 -0.000000000000000 -0.000000000000000
 0.000000000000000 0.000000000000000 0.000000000000000
 0.000000000000000 0.000000000000000 -0.000000000000000
 0.000000000000000 0.000000000000000 -0.000000000000000
 0.000000000000000 0.000000000000000 -0.000000000000000
 -0.000000000000000 0.000000000000000 0.000000000000000
 -0.000000000000000 -0.000000000000000 0.000000000000000
 0.000000000000000 -0.000000000000000 -0.000000000000000
 -0.000000000000000 -0.000000000000000 -0.000000000000000
 -0.000000000000000 0.000000000000000 0.000000000000000
 -0.000000000000000 0.000000000000000 0.000000000000000
 -0.000000000000000 -0.000000000000000 -0.000000000000000
 0.000000000000000 0.000000000000000 -0.000000000000000
 0.000000000000000 -0.000000000000000 0.000000000000000
 -0.000000000000000 -0.000000000000000 -0.000000000000000
 -0.000000000000000 0.000000000000000 0.000000000000000
 0.000000000000000 -0.000000000000000 -0.000000000000000
 0.000000000000000 0.000000000000000 -0.000000000000000
 0.000000000000000 -0.000000000000000 0.000000000000000
 -0.000000000000000 0.000000000000000 0.000000000000000
 248554.433229574 272381.010596054 447693.286512761
 182650.885072718 269204.789189587 480174.380469786
 131288.325207567 261376.427419367 500845.024786790
 92734.5756699179 251839.424582457 514176.237005656
 64573.1425266855 242204.374120383 523036.662597548
 44370.1359679610 233308.197098874 529148.916847288
 30129.3307875059 225494.475048976 533520.819789335
 20177.5547325262 218861.850545940 536742.355940560
 13359.7705931936 213363.715465240 539163.649973333
 8688.68700332955 208874.575157223 541013.787782759
 5599.21030272434 205281.097044959 542428.170396785
 3519.54806306482 202398.173821775 543527.912820531
 2222.41364474421 200158.840804105 544363.389038562
 1364.65535447969 198356.588442365 545025.505400683
 889.119134658614 197008.330902516 545515.285782323
 585.261927444153 195882.857762575 545920.839960560
 458.914203696367 195089.930437669 546204.822790480
 397.445771949088 194362.351756245 546464.196683223
 395.339689151627 193897.718613513 546629.233048330
 439.852724367936 193388.601905660 546809.523675799
 456.394135612003 193103.576607142 546910.230664890
 553.145586303302 192705.516447389 547050.525966940
 539.647585976500 192503.183348042 547121.771803456
 671.155561822040 192159.073628683 547242.578727549
 607.462687974005 191975.421096673 547307.106370672
 769.267892027230 191663.067028856 547416.365268707
 652.460541248035 191456.052891904 547488.953410290
 841.344917951777 191177.892894740 547585.888612057
 681.992254290152 190923.749482383 547674.772807872
 889.769870199722 190700.445122877 547752.269314802
 709.753059032915 190396.298606943 547858.326328415
 919.614689841291 190263.729237676 547904.067921926
 747.231065632403 189935.722899098 548018.122704470
 930.421163025199 189946.726771118 548014.028383761
 788.568201798552 189664.230285950 548112.085170751
 896.554847682800 189900.105007586 548030.242146830
 775.457209000224 189800.428532966 548064.955999578
 711.736966402660 190402.529057226 547856.158456855
 501.235312541471 190735.597459011 547740.523081062
 27.5443873420991 191969.709904412 547309.446036264
 -657.976650593183 193170.443681229 546886.411199551
 -2188.89470251422 195523.244729771 546045.666140042
 -4446.04371638530 198293.640530958 545031.985135048
 -8756.21321220869 202550.584698090 543411.988613284
 -15401.0812566831 207856.475661378 541256.401552681
 -26785.1859810049 214985.350235537 538018.450423465
 -44514.3169969810 223664.608780315 533284.744167167
 -72880.9825485373 233936.116924603 525701.679264008
 -116249.387407082 244763.158894771 512812.905429779
 -181580.771294797 253497.816241824 489047.319445279
 -0.000000000000000 0.000000000000000 -0.000000000000000
 -0.000000000000000 -0.000000000000000 0.000000000000000
 -0.000000000000000 -0.000000000000000 -0.000000000000000
 0.000000000000000 0.000000000000000 0.000000000000000
 0.000000000000000 -0.000000000000000 -0.000000000000000
 -0.000000000000000 0.000000000000000 0.000000000000000
 0.000000000000000 0.000000000000000 -0.000000000000000
 -0.000000000000000 0.000000000000000 0.000000000000000
 0.000000000000000 0.000000000000000 0.000000000000000
 0.000000000000000 -0.000000000000000 -0.000000000000000
 -0.000000000000000 0.000000000000000 0.000000000000000
 -0.000000000000000 0.000000000000000 0.000000000000000
 -0.000000000000000 0.000000000000000 -0.000000000000000
 -0.000000000000000 -0.000000000000000 0.000000000000000
 -0.000000000000000 0.000000000000000 0.000000000000000
 0.000000000000000 0.000000000000000 -0.000000000000000
 -0.000000000000000 0.000000000000000 -0.000000000000000
 -0.000000000000000 0.000000000000000 0.000000000000000
 0.000000000000000 -0.000000000000000 0.000000000000000
 0.000000000000000 0.000000000000000 -0.000000000000000
 -0.000000000000000 -0.000000000000000 0.000000000000000
 -0.000000000000000 0.000000000000000 -0.000000000000000
 -0.000000000000000 -0.000000000000000 -0.000000000000000
 -0.000000000000000 0.000000000000000 -0.000000000000000
 0.000000000000000 -0.000000000000000 0.000000000000000
 244973.838232124 219486.453594661 477716.982396753
 176691.524072139 215917.805625697 508487.567728896
 124962.220320371 207081.692070671 527163.747142907
 87087.9673534027 196528.940353185 538694.775866545
 59926.3673193761 186121.423339000 546047.293074664
 40788.6853072416 176684.414103225 550925.494930037
 27410.0632997380 168547.942194180 554292.593863576
 18231.4479558884 161733.389580116 556695.540668648
 11919.1990412558 156143.432938367 558459.632421571
 7730.72172459210 151645.184894495 559771.358538404
 4884.41942278836 148031.567598354 560769.825722886
 3104.45455149066 145217.299490645 561517.852156619
 1900.15083444153 142951.368784856 562104.345819655
 1236.11471692457 141261.675154656 562533.208933398
 782.662160793126 139846.401970403 562887.529881303
 601.774723700935 138869.055400194 563129.668299798
 481.076187507890 137955.720814939 563354.229291067
 477.895475017412 137408.874339413 563487.863994150
 505.936849253954 136769.763476691 563643.305492432
 533.327939801450 136466.363301022 563716.814764916
 638.410698809906 135963.122226892 563838.294040140
 624.776077518963 135778.436587990 563882.812127284
 785.723281820565 135336.604376728 563988.817402173
 697.115495908112 135184.373605513 564025.441946434
 911.507463789988 134775.015393319 564123.093287161
 736.830183337438 134592.840499742 564166.840896815
 1004.14277710286 134219.602747820 564255.341078399
 751.360203233340 133963.116296982 564316.683192909
 1063.57700985698 133652.872099617 564389.739970056
 759.231488732493 133297.884844913 564474.177853530
 1095.44159975239 133093.803177583 564521.779529743
 781.866429686003 132645.061223107 564627.909705148
 1105.31446937295 132602.337920256 564637.404232137
 831.322403794135 132107.506522235 564753.854013887
 1087.27284664058 132295.189848412 564709.483345844
 887.823880299010 131865.298731740 564810.370619332
 995.022176270421 132383.908558616 564688.861839521
 847.355930397070 132228.235830271 564725.575511807
 655.736674126110 133260.370205535 564483.165153840
 370.489975468478 133749.899532054 564367.634713706
 -491.493078295757 135658.353140908 563911.845644025
 -1553.00185229154 137420.011227228 563483.210663419
 -4111.83963135751 140871.965439586 562617.260780395
 -7727.52679659840 144858.678253399 561565.889868933
 -14712.2934889206 150857.949638372 559844.109954907
 -25356.5401199504 158196.883041951 557432.320617451
 -43499.2681924642 167667.788694849 553529.878417507
 -71628.8252210058 178634.410853324 547137.147940573
 -116218.431566556 190199.073174625 535460.165397692
 -183770.848109430 199221.479849518 512775.854883700
 0.000000000000000 -0.000000000000000 0.000000000000000
 0.000000000000000 -0.000000000000000 0.000000000000000
 0.000000000000000 0.000000000000000 0.000000000000000
 -0.000000000000000 -0.000000000000000 -0.000000000000000
 0.000000000000000 0.000000000000000 -0.000000000000000
 -0.000000000000000 0.000000000000000 0.000000000000000
 0.000000000000000 0.000000000000000 -0.000000000000000
 -0.000000000000000 0.000000000000000 0.000000000000000
 -0.000000000000000 0.000000000000000 0.000000000000000
 -0.000000000000000 0.000000000000000 0.000000000000000
 -0.000000000000000 -0.000000000000000 -0.000000000000000
 -0.000000000000000 0.000000000000000 0.000000000000000
 0.000000000000000 0.000000000000000 -0.000000000000000
 -0.000000000000000 0.000000000000000 0.000000000000000
 -0.000000000000000 0.000000000000000 0.000000000000000
 0.000000000000000 0.000000000000000 0.000000000000000
 0.000000000000000 -0.000000000000000 0.000000000000000
 0.000000000000000 0.000000000000000 -0.000000000000000
 0.000000000000000 0.000000000000000 -0.000000000000000
 -0.000000000000000 0.000000000000000 0.000000000000000
 0.000000000000000 0.000000000000000 -0.000000000000000
 0.000000000000000 -0.000000000000000 0.000000000000000
 0.000000000000000 -0.000000000000000 0.000000000000000
 -0.000000000000000 0.000000000000000 0.000000000000000
 0.000000000000000 0.000000000000000 -0.000000000000000
 237439.391281758 179512.083940577 497793.076676504
 167852.261555249 175750.549929737 526628.296325011
 116561.922625168 166230.405999947 543305.411637891
 79945.8075719546 155050.015966074 553143.887610256
 54313.8088735517 144195.704057649 559157.946466798
 36510.6292625078 134553.243473309 562994.137288896
 24331.4235658096 126348.676909112 565547.516722139
 15973.4820163642 119577.126947436 567314.867232712
 10413.3834801140 114092.184571438 568572.365547441
 6627.32633901035 109688.822133174 569494.899752959
 4243.55242931814 106239.037294428 570171.254289036
 2618.53268072213 103476.457649748 570688.852176788
 1716.02190673361 101401.966585220 571064.529139629
 1083.13841827063 99683.8388671780 571368.496751325
 834.544900910780 98490.5937594745 571575.809911261
 642.544622533785 97392.1390938251 571764.250700529
 645.880656331577 96739.7949979478 571874.981881471
 648.784105208839 95978.6483385101 572003.215150315
 707.586682909149 95639.5493947701 572059.940838940
 808.044532997407 95039.5508096829 572159.794852737
 823.792664126193 94860.3700777763 572189.506679696
 993.618497900075 94322.6051623036 572278.130700166
 915.589300361231 94195.4702451935 572299.200664757
 1154.41914705065 93677.5786235990 572383.768620017
 959.544040150060 93521.3223040851 572409.679818336
 1272.37745493893 93022.8650026173 572490.286068085
 960.470584129023 92774.1308087578 572531.255172097
 1344.68485443913 92325.6202164824 572602.979100077
 939.749586064059 91939.4902249821 572665.912210501
 1377.07572422120 91593.2595775344 572720.506409900
 927.462225032978 91052.2369955583 572807.672741842
 1379.10209650810 90874.2012195931 572835.035267667
 950.914080303874 90202.9719595476 572941.986253474
 1355.65043718348 90266.4428326647 572931.175194918
 1016.05343124752 89550.2046001865 573044.263989694
 1290.39369716062 89938.6896713513 572982.867967539
 1076.72859071573 89349.0424461677 573075.552845779
 1105.00181493327 90186.1888864691 572944.351839796
 958.641237434197 90030.9979432575 572969.022213521
 522.518554668560 91564.8186547601 572726.471327353
 112.000643004520 92380.9299197035 572595.626287022
 -1373.64613623718 95128.1038252943 572144.000194791
 -3120.49120009043 97792.3946267361 571687.773253757
 -7328.64775476926 102662.054777177 570794.878595642
 -13330.2757696863 108377.296319887 569628.532809142
 -24678.6687863938 116517.378389601 567639.554506331
 -42108.1129569537 126262.884267298 564521.559269181
 -71258.4215105818 137880.806128516 558848.030027100
 -116331.597294954 149847.503320905 548099.156375282
 -185962.685039471 158750.686627302 525943.057058719
 -0.000000000000000 0.000000000000000 -0.000000000000000
 0.000000000000000 0.000000000000000 -0.000000000000000
 -0.000000000000000 0.000000000000000 0.000000000000000
 0.000000000000000 0.000000000000000 -0.000000000000000
 0.000000000000000 0.000000000000000 0.000000000000000
 -0.000000000000000 0.000000000000000 0.000000000000000
 0.000000000000000 0.000000000000000 0.000000000000000
 0.000000000000000 0.000000000000000 0.000000000000000
 -0.000000000000000 -0.000000000000000 0.000000000000000
 -0.000000000000000 -0.000000000000000 0.000000000000000
 -0.000000000000000 -0.000000000000000 -0.000000000000000
 0.000000000000000 0.000000000000000 0.000000000000000
 -0.000000000000000 -0.000000000000000 0.000000000000000
 0.000000000000000 0.000000000000000 -0.000000000000000
 0.000000000000000 0.000000000000000 0.000000000000000
 0.000000000000000 0.000000000000000 -0.000000000000000
 -0.000000000000000 -0.000000000000000 0.000000000000000
 0.000000000000000 -0.000000000000000 -0.000000000000000
 0.000000000000000 -0.000000000000000 -0.000000000000000
 0.000000000000000 0.000000000000000 -0.000000000000000
 0.000000000000000 -0.000000000000000 0.000000000000000
 0.000000000000000 -0.000000000000000 0.000000000000000
 -0.000000000000000 0.000000000000000 -0.000000000000000
 0.000000000000000 0.000000000000000 0.000000000000000
 -0.000000000000000 0.000000000000000 -0.000000000000000
 223030.517217309 150522.594353431 513809.631068640
 153815.649266627 146001.174400806 539837.385806384
 104689.065710814 135579.329183008 554128.545573030
 70741.0008125369 123810.022622753 562198.176003973
 47462.8862427995 112774.156828627 566947.320287428
 31653.0244311194 103161.809232299 569873.430825023
 20865.8694099324 95156.1625898680 571760.369573599
 13676.7946989458 88623.6827393587 573025.992555727
 8786.41789637530 83381.3043152329 573907.969060581
 5677.59045251417 79244.9587928773 574532.854998362
 3557.15600861544 75954.6178338801 574994.124031576
 2359.22646080131 73455.9236621798 575324.831142758
 1516.12850554244 71421.2909665508 575583.791077395
 1178.86313533111 69982.5243508387 575761.284359406
 905.739076628132 68700.4069192286 575916.169008874
 916.305818236253 67920.5704452046 576008.642725129
 891.009189884303 67049.7956263283 576110.693364644
 995.961766583996 66658.1888055945 576155.963195138
 1086.47380668873 65978.6836425854 576234.008784156
 1156.58948080031 65791.3680008276 576255.289084059
 1322.56544336954 65172.2945011092 576325.275213666
 1288.30061851141 65059.0259844086 576338.150237754
 1529.35546551989 64436.5831145227 576407.484188386
 1353.31313975505 64298.1951761480 576423.377944229
 1680.51449006188 63660.2003290673 576493.325863458
 1350.13403389842 63416.1210453374 576521.094782883
 1769.32200668192 62790.5803793583 576588.425582113
 1299.43865466920 62376.8562536387 576634.580356655
 1800.59431265091 61822.3578958892 576692.945963720
 1237.25090809055 61199.9782315910 576760.809933063
 1786.99606950522 60796.1094688323 576802.080196060
 1204.71019723145 59967.0252850842 576890.374812927
 1741.41350790647 59803.6070492839 576905.968129027
 1229.01472980786 58829.3249592272 577007.452332840
 1662.76979822937 58996.7685023328 576989.268966833
 1297.94278714977 58017.3853448643 577089.506352582
 1516.13765677305 58612.4594783237 577028.838898462
 1325.01906500151 57879.6047669742 577103.279904469
 1179.33314996043 59061.6149917937 576983.825430039
 1036.76966541723 59018.2001618735 576988.541617868
 211.010348000259 61151.5292521895 576767.237232448
 -462.900236095151 62567.4268777972 576615.212093180
 -2930.05326715179 66409.1346146462 576178.133590286
 -5958.12864152481 70464.2150099670 575672.906350577
 -12864.2668772869 77183.4303804325 574697.510619646
 -23050.9217164379 85187.7109882255 573246.638807948
 -41564.3562100699 95728.9813201397 570533.405181722
 -70250.1564980571 107696.536811296 565567.300567184
 -116774.906392492 119976.362072234 555310.087951711
 -187363.197143074 128854.226413903 533565.010745269
 -0.000000000000000 -0.000000000000000 0.000000000000000
 0.000000000000000 -0.000000000000000 -0.000000000000000
 0.000000000000000 0.000000000000000 0.000000000000000
 -0.000000000000000 0.000000000000000 0.000000000000000
 -0.000000000000000 -0.000000000000000 -0.000000000000000
 0.000000000000000 0.000000000000000 -0.000000000000000
 -0.000000000000000 -0.000000000000000 -0.000000000000000
 -0.000000000000000 0.000000000000000 0.000000000000000
 0.000000000000000 -0.000000000000000 0.000000000000000
 0.000000000000000 -0.000000000000000 0.000000000000000
 -0.000000000000000 -0.000000000000000 -0.000000000000000
 0.000000000000000 0.000000000000000 0.000000000000000
 -0.000000000000000 0.000000000000000 0.000000000000000
 -0.000000000000000 -0.000000000000000 -0.000000000000000
 0.000000000000000 -0.000000000000000 0.000000000000000
 -0.000000000000000 -0.000000000000000 0.000000000000000
 -0.000000000000000 -0.000000000000000 -0.000000000000000
 -0.000000000000000 -0.000000000000000 -0.000000000000000
 -0.000000000000000 0.000000000000000 -0.000000000000000
 -0.000000000000000 0.000000000000000 0.000000000000000
 0.000000000000000 0.000000000000000 0.000000000000000
 -0.000000000000000 0.000000000000000 -0.000000000000000
 -0.000000000000000 0.000000000000000 -0.000000000000000
 -0.000000000000000 -0.000000000000000 0.000000000000000
 -0.000000000000000 -0.000000000000000 0.000000000000000
 196943.640779596 130367.500698250 529733.439682798
 131558.058188898 123721.145950673 551167.447669235
 88021.0819173169 111760.082059772 562282.823138052
 58929.5970259660 99470.4977377944 568359.853151288
 39404.6029681073 88478.2463643692 571855.643659492
 26157.0236349900 79248.7331968959 573964.675220737
 17293.7925006388 71675.5900732984 575294.302534441
 11255.7123487157 65598.6643480812 576168.485926878
 7366.57242066627 60770.7399941238 576760.479550513
 4711.63625409814 56950.6917266120 577177.978786154
 3176.72357837304 54013.9350477993 577470.694709228
 2102.40080580637 51662.5241063442 577690.716139539
 1655.55347389633 49963.2734423470 577841.613636142
 1296.35926464755 48506.1676064254 577966.669589859
 1310.90819624239 47587.2953977346 578043.018153865
 1260.41866125880 46626.4620126184 578121.427024621
 1421.11364868823 46174.4373767834 578157.333058169
 1504.44354556186 45442.7152939236 578215.095164709
 1648.29348572818 45240.7534665151 578230.539970320
 1807.00058794312 44568.7818382503 578282.248071242
 1844.57887584239 44461.9006278361 578290.356932684
 2074.83445146003 43756.0402662005 578343.413554803
 1953.76902097783 43626.0802673954 578353.652972916
 2271.37833657542 42853.3343823769 578410.263197987
 1964.45413083386 42603.1592023364 578429.867612270
 2384.31875659330 41780.1914291439 578488.315031696
 1891.94134179046 41328.2986530396 578522.594449347
 2415.28834949227 40512.6370875171 578578.337494935
 1773.13647889201 39799.6390375976 578630.145014503
 2378.17750912548 39081.1941483793 578676.943151939
 1660.03001956689 38086.9448859470 578745.737720451
 2293.54713194243 37577.0198450554 578776.906261055
 1600.69746997386 36341.9024418629 578858.103419582
 2172.27189590929 36156.7135193087 578867.837508954
 1608.82904977642 34797.8455772311 578952.952848737
 1996.52315876107 35041.7936199281 578937.031632262
 1639.89272224051 33767.9750321448 579013.846651432
 1710.28116432086 34550.1048744518 578967.499253199
 1566.50861280488 33715.2562135355 579017.121982780
 1148.72231184631 35264.5934119554 578925.806030911
 984.353554500434 35511.1903790677 578911.034966463
 -405.420650021889 38407.9149552520 578726.764287679
 -1616.38921945668 40837.9698832611 578558.249013619
 -5638.02362967654 46176.4086209767 578131.431403292
 -11012.9698865401 52256.4001553208 577536.131455933
 -22368.1066229786 61315.2192276096 576315.982510613
 -39685.3714630067 71992.6946005789 574144.688398309
 -69707.8655101354 84631.1258036556 569542.260092460
 -116096.979053448 97260.7196726781 559876.632717795
 -188007.995497499 106023.603136145 538341.888772407
 0.000000000000000 -0.000000000000000 0.000000000000000
 0.000000000000000 -0.000000000000000 0.000000000000000
 0.000000000000000 -0.000000000000000 0.000000000000000
 0.000000000000000 -0.000000000000000 -0.000000000000000
 -0.000000000000000 0.000000000000000 -0.000000000000000
 0.000000000000000 0.000000000000000 -0.000000000000000
 -0.000000000000000 -0.000000000000000 -0.000000000000000
 0.000000000000000 -0.000000000000000 0.000000000000000
 0.000000000000000 -0.000000000000000 0.000000000000000
 -0.000000000000000 -0.000000000000000 0.000000000000000
 0.000000000000000 0.000000000000000 -0.000000000000000
 0.000000000000000 0.000000000000000 0.000000000000000
 0.000000000000000 -0.000000000000000 -0.000000000000000
 0.000000000000000 -0.000000000000000 0.000000000000000
 -0.000000000000000 0.000000000000000 0.000000000000000
 -0.000000000000000 0.000000000000000 0.000000000000000
 0.000000000000000 -0.000000000000000 0.000000000000000
 0.000000000000000 -0.000000000000000 -0.000000000000000
 0.000000000000000 -0.000000000000000 -0.000000000000000
 0.000000000000000 0.000000000000000 0.000000000000000
 0.000000000000000 -0.000000000000000 0.000000000000000
 -0.000000000000000 -0.000000000000000 -0.000000000000000
 -0.000000000000000 -0.000000000000000 0.000000000000000
 0.000000000000000 0.000000000000000 0.000000000000000
 -0.000000000000000 0.000000000000000 -0.000000000000000
 149579.283875064 118344.341645481 547741.412197326
 97909.2602751769 106137.457902610 561737.142071218
 66084.3123912777 91864.3254528838 568853.064828571
 44935.6436356965 79227.1997822453 572803.490514601
 30417.4668516295 68771.1901298727 575104.600154138
 20503.6355726929 60246.7339785353 576497.989565637
 13637.5196593440 53432.7606276830 577372.460504696
 9111.18270981988 47993.0388646343 577939.144348404
 5989.93251998050 43703.1575403358 578320.114408457
 4133.47216870176 40365.0099601966 578578.931848321
 2838.36769268962 37728.2544395017 578764.652070070
 2275.44229334136 35782.3162739244 578890.704886892
 1836.35530918819 34175.4584853933 578989.348638204
 1853.58666740180 33125.5453368770 579050.310821609
 1788.44711476015 32106.3720875668 579107.919414242
 2012.11727168179 31602.8806007316 579134.880077017
 2099.11100300422 30859.4323529711 579174.662056145
 2331.17027237102 30652.0114231182 579184.789027542
 2488.35367433331 29971.7760973429 579219.734413083
 2619.47993459790 29876.9869562738 579224.053346619
 2835.89847140431 29128.2981807545 579261.167285494
 2800.00728592016 29005.6510344946 579267.496211607
 3094.08134639381 28124.9012559184 579309.430779412
 2849.55204133722 27859.2018184981 579323.523540344
 3244.02528746677 26841.1227486288 579369.511132168
 2773.75237997566 26333.3945665819 579395.252507591
 3281.02374489537 25223.6742993653 579441.973918031
 2603.12218412984 24394.4736094867 579480.917211439
 3215.64207955061 23283.9439939081 579523.526354284
 2393.49071188931 22090.6909099197 579574.216625735
 3073.95920615389 21108.2189694742 579607.620607887
 2212.31080281472 19571.1737996726 579665.485290451
 2881.22888003895 18868.2343647801 579685.853072245
 2101.48093477333 17090.0560119020 579744.352075456
 2631.35788909235 16809.8877011572 579750.380449322
 2039.69867802169 14976.6308860137 579803.018409362
 2281.17469047583 15226.3646735054 579795.614040725
 1954.41929742425 13621.2769125944 579836.736556490
 1787.94388701432 14529.5191108532 579815.226025554
 1723.50027537228 13654.4007368988 579836.689842335
 972.019152942162 15613.0424982615 579789.003071561
 745.539386385575 16442.1677476743 579766.417870836
 -1424.23032517225 20418.4659015560 579638.730433197
 -3675.82489723370 24494.6500721388 579470.879707659
 -10221.6677239008 31936.3036370425 579029.869712215
 -19771.5354860266 40763.7992598562 578227.808959779
 -38413.4915230825 52514.1594008384 576339.020656618
 -67373.4111780237 65613.8202000107 572324.776735201
 -115091.909863614 78685.7591906887 562994.141696458
 -187174.551525214 87629.6698979456 541928.711377162
 264343.402860758 362983.871255872 367103.901602932
 203059.450262612 355688.428841568 410673.351031282
 151218.385013716 345134.625498625 440925.266134486
 110014.723680749 333254.175614574 461777.451819488
 78508.2079862830 321440.818943415 476353.084587230
 55033.0995827140 310478.509806793 486800.218671348
 37873.0231672701 300725.460317457 494499.576979622
 25524.6565272209 292286.153035488 500317.196039555
 16765.7595132869 285126.009140746 504799.037458882
 10641.3770772428 279139.869056150 508298.824115515
 6423.52454007505 274190.579893286 511056.028464851
 3565.55026719419 270130.068957354 513241.690333499
 1662.36518127329 266809.831231383 514985.194447651
 415.732193620576 264084.570170914 516390.517887757
 -390.821842890008 261811.402853086 517546.748221247