# OOMMF OVF 2.0
#
# Segment count: 1
#
# Begin: Segment
# Begin: Header
#
# Title: Oxs_TimeDriver::Magnetization
# Desc: Oxs vector field output
# Desc:  MIF source file: C:/Users/Victor H. González/Documents/GitHub/Intro-to-magnetism-in-python/domain_wall_conversion_thin_film/drive-50/domain_wall_conversion_thin_film.mif
# Desc:  Iteration: 1349, State id: 9779
# Desc:  Stage: 58, Stage iteration: 22
# Desc:  Stage simulation time: 4e-12 s
# Desc:  Total simulation time: 2.36e-10 s
# meshunit: m
# meshtype: rectangular
# xbase: 1.0000000000000001e-09
# ybase: 1.0000000000000001e-09
# zbase: 1.0000000000000001e-09
# xnodes: 125
# ynodes: 25
# znodes: 1
# xstepsize: 2.0000000000000001e-09
# ystepsize: 2.0000000000000001e-09
# zstepsize: 2.0000000000000001e-09
# xmin: 0
# ymin: 0
# zmin: 0
# xmax: 2.5000000000000004e-07
# ymax: 5.0000000000000004e-08
# zmax: 2.0000000000000001e-09
# valuedim: 3
# valuelabels: Magnetization_x Magnetization_y Magnetization_z
# valueunits: A/m A/m A/m
#
# End: Header
#
# Begin: Data Text
 0.000000000000000 -0.000000000000000 -0.000000000000000
 -0.000000000000000 0.000000000000000 0.000000000000000
 0.000000000000000 0.000000000000000 -0.000000000000000
 0.000000000000000 0.000000000000000 0.000000000000000
 0.000000000000000 0.000000000000000 0.000000000000000
 0.000000000000000 -0.000000000000000 0.000000000000000
 -0.000000000000000 -0.000000000000000 0.000000000000000
 -0.000000000000000 -0.000000000000000 -0.000000000000000
 -0.000000000000000 0.000000000000000 -0.000000000000000
 -0.000000000000000 -0.000000000000000 -0.000000000000000
 0.000000000000000 -0.000000000000000 -0.000000000000000
 0.000000000000000 0.000000000000000 0.000000000000000
 0.000000000000000 0.000000000000000 -0.000000000000000
 0.000000000000000 0.000000000000000 0.000000000000000
 0.000000000000000 0.000000000000000 -0.000000000000000
 -0.000000000000000 0.000000000000000 -0.000000000000000
 0.000000000000000 -0.000000000000000 -0.000000000000000
 -0.000000000000000 -0.000000000000000 0.000000000000000
 0.000000000000000 -0.000000000000000 -0.000000000000000
 -0.000000000000000 -0.000000000000000 -0.000000000000000
 0.000000000000000 -0.000000000000000 0.000000000000000
 0.000000000000000 -0.000000000000000 0.000000000000000
 0.000000000000000 0.000000000000000 -0.000000000000000
 -0.000000000000000 -0.000000000000000 0.000000000000000
 0.000000000000000 -0.000000000000000 0.000000000000000
 243763.910637490 280158.379727549 445522.657268014
 176021.914713387 279201.582075828 476930.563192366
 124308.667615752 277647.365856916 493821.116790597
 86658.3659731743 275992.502020398 502711.116283876
 59951.2006595325 274526.361092970 507386.569199986
 41287.3900787998 273342.118414306 509881.787987432
 28358.0992159029 272431.812824082 511250.159481878
 19449.5425784948 271751.218510938 512028.310283042
 13329.9718107321 271249.026539693 512490.270593300
 9135.12418932676 270880.935113040 512776.821334907
 6261.38333051080 270610.159013230 512962.900137644
 4294.78847741483 270410.105122124 513088.617920703
 2947.71191207496 270259.030428285 513177.715286280
 2026.23530396490 270142.720838050 513243.416663778
 1394.05595427085 270047.868877637 513295.436491153
 961.630970458521 269966.789957489 513339.076620829
 663.608025751001 269889.645726312 513380.111373740
 459.343702091994 269811.496733189 513421.410961756
 316.292077213112 269722.742897619 513468.150836161
 216.533140798026 269618.775088292 513522.803031460
 142.399974896703 269487.909165288 513591.517196272
 86.4065337267588 269324.175330715 513677.409583429
 37.4493771675190 269111.973878916 513788.618122802
 -7.14238992085783 268842.929915612 513929.449422171
 -55.3737959441436 268496.416108357 514110.563469290
 -107.144178104481 268061.930956411 514337.233429630
 -167.815523504606 267514.494061017 514622.159749489
 -234.123614359563 266844.685022777 514969.765385530
 -306.862292760483 266027.585843734 515392.306312084
 -377.552370815798 265063.259111364 515888.869935638
 -439.173003408959 263936.984367292 516465.947967698
 -476.572853407420 262673.009167924 517109.913976693
 -473.639318594852 261281.626046173 517814.336955306
 -412.712301176283 259827.804783790 518545.409322842
 -274.541208965736 258357.153490132 519279.795358534
 -53.5124182882326 256979.231427145 519963.144608861
 258.988008044118 255762.707553984 520562.551812812
 636.888651317309 254834.885937998 521017.058532457
 1070.17695607258 254242.732906271 521305.560574249
 1495.67203887915 254078.228682229 521384.710818080
 1901.58181016026 254315.195074104 521267.844338243
 2207.18330436502 254973.154761688 520945.120615150
 2434.27732038231 255944.049198875 520467.787642627
 2507.95709435997 257190.519177116 519852.620457586
 2504.73523926850 258567.798892452 519168.970256595
 2355.61921094261 260030.110344577 518438.803305000
 2183.09430814697 261452.270195642 517723.811031313
 1905.50531403447 262813.978631567 517034.990774652
 1669.56842913307 264038.070258900 516411.763997700
 1366.18303299048 265131.321546885 515852.222907611
 1150.84256180184 266064.313834512 515372.153366059
 886.143551407502 266854.094985764 514964.180054239
 730.524060186475 267507.410148887 514625.350959348
 526.820466785940 268033.704183203 514351.685019139
 434.847397565100 268465.420246543 514126.569085462
 288.385107248298 268793.008547114 513955.479969054
 246.890142225420 269068.646283563 513811.251951910
 144.182448908611 269259.020378668 513711.552484604
 136.190200393161 269433.440207514 513620.095742148
 63.5864106937620 269534.433009285 513567.118670123
 74.6292104889849 269647.278741576 513507.876763097
 21.8969012466332 269692.280198461 513484.248562583
 41.6629442135491 269769.643000646 513443.607399589
 2.28700121361087 269780.478179047 513437.916001783
 24.1506555342948 269838.372411452 513407.491366346
 -5.57825668653869 269828.768351969 513412.539522111
 14.4014652931741 269876.435825892 513387.484438909
 -7.65151434725024 269854.894137328 513398.807995875
 8.14714642245174 269897.325254107 513376.502923832
 -7.32353344766391 269869.160513682 513391.308993449
 2.95528672115616 269908.824691670 513370.457218593
 -6.78468324233014 269877.492349338 513386.929203696
 -2.97334709083327 269915.463076592 513366.966977140
 -8.13449817347962 269883.385770956 513383.831084147
 -11.9395203195868 269920.062095225 513364.548772076
 -14.6592639441127 269889.142545179 513380.804589862
 -28.3568569810861 269924.728693529 513362.094467066
 -33.0031107071432 269896.690259311 513376.835762838
 -61.8374044134340 269931.547762964 513358.506015461
 -77.6476602770619 269908.199504856 513370.780051697
 -133.798373854132 269943.147533924 513352.392803884
 -180.701306786117 269926.638742545 513361.059142772
 -292.019655194444 269963.258052231 513341.751688235
 -413.562458518999 269956.386478055 513345.281818976
 -642.893308137191 269997.420918163 513323.464674794
 -934.921179061293 270004.173009966 513319.464349048
 -1422.83224704090 270054.382186473 513291.930786253
 -2096.93536984538 270081.409727467 513275.398769197
 -3155.97716986175 270150.225910983 513233.762771262
 -4679.23707330540 270211.760505084 513189.739984301
 -7000.79489034549 270322.180996714 513105.162059478
 -10401.1632198521 270455.853517495 512977.043445218
 -15504.3394624471 270671.425532641 512734.429171634
 -23026.3402052467 270982.189168007 512287.459157909
 -34204.5577604965 271473.474454538 511402.190937808
 -50647.8383224765 272223.132709172 509636.500352226
 -74782.2089008948 273362.643203697 506043.957114984
 -109731.711673191 275006.585759373 498728.713071791
 -159350.777394300 277204.179129782 483906.161168481
 -226878.713264134 279859.877190406 454537.675673405
 -0.000000000000000 -0.000000000000000 -0.000000000000000
 -0.000000000000000 -0.000000000000000 -0.000000000000000
 0.000000000000000 0.000000000000000 -0.000000000000000
 0.000000000000000 -0.000000000000000 0.000000000000000
 -0.000000000000000 -0.000000000000000 -0.000000000000000
 -0.000000000000000 -0.000000000000000 -0.000000000000000
 0.000000000000000 0.000000000000000 0.000000000000000
 0.000000000000000 0.000000000000000 -0.000000000000000
 0.000000000000000 0.000000000000000 -0.000000000000000
 0.000000000000000 0.000000000000000 -0.000000000000000
 -0.000000000000000 0.000000000000000 0.000000000000000
 -0.000000000000000 -0.000000000000000 0.000000000000000
 0.000000000000000 -0.000000000000000 -0.000000000000000
 -0.000000000000000 -0.000000000000000 -0.000000000000000
 -0.000000000000000 0.000000000000000 0.000000000000000
 -0.000000000000000 0.000000000000000 0.000000000000000
 -0.000000000000000 -0.000000000000000 -0.000000000000000
 0.000000000000000 0.000000000000000 -0.000000000000000
 0.000000000000000 -0.000000000000000 0.000000000000000
 -0.000000000000000 -0.000000000000000 -0.000000000000000
 -0.000000000000000 0.000000000000000 0.000000000000000
 0.000000000000000 -0.000000000000000 -0.000000000000000
 0.000000000000000 0.000000000000000 -0.000000000000000
 0.000000000000000 -0.000000000000000 0.000000000000000
 -0.000000000000000 0.000000000000000 0.000000000000000
 241739.359590973 212038.851222064 482702.400653833
 172210.053682000 209330.054645310 512761.763037216
 120625.875445921 205976.507241088 528604.839778891
 83645.7214608335 202946.044561372 536857.798935799
 57662.1680650760 200504.278883519 541177.520341925
 39615.1619696799 198642.971835729 543481.010415622
 27167.7016892755 197266.878874698 544745.531862316
 18613.7119467853 196264.952035901 545466.404400773
 12751.2048474595 195542.597150232 545894.220041466
 8734.80222058189 195021.481861482 546159.614803876
 5987.86826139532 194646.599600311 546330.345759523
 4105.42938642531 194372.709621408 546445.235320050
 2819.01769108289 194172.488909954 546524.562750633
 1935.00436594314 194019.401626136 546582.772826531
 1331.49168702777 193901.440078608 546626.434290667
 913.729008137743 193800.438614572 546663.109320630
 628.743442448993 193712.247678075 546694.768386521
 427.277332382806 193620.855199521 546727.337770746
 288.669842643284 193525.819887341 546761.075522622
 184.065322854127 193409.258554066 546802.363588091
 107.878448061528 193271.984257630 546850.919779202
 39.9119606291679 193091.122721451 546914.816706592
 -18.4591898390235 192867.213556997 546993.818606772
 -83.9895354677835 192569.721829836 547098.615589674
 -151.869350608896 192198.438961364 547229.144871246
 -236.789136924613 191713.424536972 547399.220663687
 -331.086820201498 191115.539778939 547608.200118043
 -445.512150304971 190356.310864676 547872.500161228
 -567.647866804731 189444.398599889 548188.377854754
 -699.247373585113 188329.219264202 548572.343656191
 -820.020381373336 187042.271796316 549012.309632350
 -916.458476532472 185545.319223321 549519.876454143
 -961.069323193200 183916.670512371 550067.027418840
 -924.013889944252 182149.246985825 550654.881046947
 -784.711282600531 180390.814228878 551233.651340378
 -508.875017193923 178670.379176157 551794.016505494
 -115.297888927869 177199.845112746 552268.233377963
 416.541515457939 176007.353547721 552649.290228707
 996.412837647987 175313.420289882 552869.072952828
 1638.21287286634 175068.576903874 552945.123533463
 2182.96871803891 175426.702707131 552829.726611079
 2690.23426599729 176209.674453314 552578.422731698
 2965.94123899320 177483.855563568 552169.072120901
 3173.65715157101 178978.884440945 551685.133771574
 3099.50592811043 180723.738692960 551116.433556322
 3023.23554387566 182446.772992434 550548.848942121
 2688.91140072275 184194.034041745 549968.478713924
 2463.55666481600 185761.093995491 549442.214292056
 2021.97436341380 187218.832778949 548949.014274150
 1785.33988433879 188450.671170027 548528.173476133
 1354.99426814676 189524.257140560 548159.392828265
 1185.67293831615 190405.059457100 547854.458330697
 822.164238634932 191124.013170699 547604.725724214
 740.258403349106 191718.736944357 547396.910771295
 452.862712714332 192160.662619255 547242.244949247
 445.287810009236 192553.384854622 547104.190899498
 222.073358331866 192798.442911447 547018.017156972
 264.944387910501 193062.275479462 546924.937803318
 89.6936695984489 193175.014271844 546885.185222747
 160.375716604260 193363.353351446 546818.605993170
 19.9886418915269 193389.855565614 546809.256838950
 101.195555982834 193537.681071532 546756.943956740
 -12.7307886685944 193508.793250552 546767.177848709
 67.1765710176233 193637.109393959 546721.743991274
 -24.8560045925563 193572.910032046 546744.481347461
 46.1799522239182 193693.201269516 546701.876390943
 -26.1085802555767 193606.808399816 546732.478511729
 31.4415617686919 193724.512696313 546690.782976999
 -22.0659888734928 193624.794977512 546726.109018958
 19.3365878736333 193741.725167916 546684.683848977
 -16.0557294907601 193635.047885315 546722.478020307
 7.76275401037821 193750.992416061 546681.399791076
 -10.5246494282953 193642.273285826 546719.919049900
 -5.11475419099620 193756.043271687 546679.609707129
 -8.24799924676263 193649.375914886 546717.403362785
 -22.2118085904493 193759.517643566 546678.377868714
 -13.9509778984649 193658.564509479 546714.148525075
 -49.7062402831407 193763.901254677 546676.822354723
 -37.3448567829964 193672.209819125 546709.313757447
 -101.454024776122 193772.341024617 546673.823738544
 -99.5984192864431 193693.714447379 546701.687452794
 -208.590894883604 193789.597178145 546667.676486704
 -247.595469991356 193728.670896349 546689.254301945
 -440.757963049139 193823.468501801 546655.530284245
 -585.533171999074 193786.765525173 546668.406493549
 -953.131011620468 193887.379767736 546632.212285441
 -1344.91085506733 193885.534927397 546632.043115575
 -2090.46463387659 194005.984087145 546586.962976609
 -3039.14644695539 194059.126016622 546563.646063785
 -4616.49987603614 194229.160745326 546492.196691829
 -6803.61529066963 194381.147775951 546415.300122792
 -10216.7579187543 194669.490498162 546259.468866962
 -15137.1968042829 195025.861210196 546018.112091650
 -22586.9212208035 195600.458040051 545555.030958644
 -33488.2977076119 196420.531911991 544699.466274804
 -49713.6241789865 197679.493186834 543002.185579752
 -73455.5917723540 199536.418250083 539619.767826662
 -108147.042402909 202232.275379794 532734.759532561
 -157873.704692252 205871.006781028 518741.768063561
 -227294.752364984 210026.865474541 490536.248738337
 -0.000000000000000 0.000000000000000 -0.000000000000000
 -0.000000000000000 -0.000000000000000 0.000000000000000
 -0.000000000000000 -0.000000000000000 -0.000000000000000
 0.000000000000000 0.000000000000000 0.000000000000000
 0.000000000000000 -0.000000000000000 -0.000000000000000
 -0.000000000000000 0.000000000000000 0.000000000000000
 0.000000000000000 0.000000000000000 -0.000000000000000
 -0.000000000000000 0.000000000000000 0.000000000000000
 0.000000000000000 0.000000000000000 0.000000000000000
 0.000000000000000 -0.000000000000000 -0.000000000000000
 -0.000000000000000 0.000000000000000 0.000000000000000
 -0.000000000000000 0.000000000000000 0.000000000000000
 -0.000000000000000 0.000000000000000 -0.000000000000000
 -0.000000000000000 -0.000000000000000 0.000000000000000
 -0.000000000000000 0.000000000000000 0.000000000000000
 0.000000000000000 0.000000000000000 -0.000000000000000
 -0.000000000000000 0.000000000000000 -0.000000000000000
 -0.000000000000000 0.000000000000000 0.000000000000000
 0.000000000000000 -0.000000000000000 0.000000000000000
 0.000000000000000 0.000000000000000 -0.000000000000000
 -0.000000000000000 -0.000000000000000 0.000000000000000
 -0.000000000000000 0.000000000000000 -0.000000000000000
 -0.000000000000000 -0.000000000000000 -0.000000000000000
 -0.000000000000000 0.000000000000000 -0.000000000000000
 0.000000000000000 -0.000000000000000 0.000000000000000
 238700.861434427 160773.578147525 503561.074071561
 167653.267728139 157706.823811591 532372.932767376
 116135.668458162 153444.690465251 547144.618432640
 79872.8176002272 149432.858876316 554698.254636385
 54738.6825655040 146135.047352898 558612.767994215
 37459.0276069498 143597.255692571 560693.008167842
 25621.9205071021 141711.483545268 561837.496631301
 17530.9295339148 140339.911247743 562492.111785270
 11998.6825130485 139351.092782628 562883.029197220
 8220.52381615986 138644.355094348 563125.355306135
 5633.27710413668 138136.209587564 563282.037517484
 3866.26831598003 137772.996718975 563385.883160363
 2651.55445882242 137506.295993219 563458.062167166
 1822.41061082529 137311.909977531 563508.756096911
 1247.52218986769 137159.375501617 563547.468630986
 855.481385834228 137040.650372654 563577.082835204
 577.384063202457 136932.095245290 563603.821774993
 386.497745496715 136834.263688260 563627.744970370
 241.703094080379 136723.497396776 563654.705328722
 137.212239083565 136604.780919238 563683.523799311
 43.4159898391288 136449.575652175 563721.129122719
 -35.8370424040642 136264.781770692 563765.827240967
 -126.229978720346 136012.701511989 563826.683559233
 -219.616844866146 135700.576308074 563901.857913323
 -340.572419337416 135277.465870713 564003.449668550
 -478.395118983527 134750.816239171 564129.407725734
 -655.365535149748 134053.534928985 564295.330717044
 -856.506265175293 133196.894928042 564497.877390647
 -1095.65576104479 132099.062434833 564755.378232285
 -1348.04765190318 130787.457916967 565060.017714176
 -1607.69141500826 129176.892233270 565429.700176129
 -1833.81705596929 127338.454730105 565845.875713480
 -1989.57020823217 125209.503132160 566320.246800151
 -2023.97276096210 122947.387719286 566815.528533990
 -1874.49440928765 120542.327431470 567332.383676548
 -1518.41022299541 118269.910253489 567811.520452894
 -901.139404200866 116165.634240610 568247.070708905
 -97.2135559332622 114588.108630965 568567.987060390
 911.156828358819 113524.670178416 568780.554391688
 1913.41914956907 113295.835971821 568823.691822523
 2939.86986225092 113709.990935126 568736.665889168
 3688.97288621540 114949.756511282 568483.020816842
 4322.92684706055 116625.815098143 568137.071098313
 4512.14217179322 118819.896233896 567680.784272277
 4622.05592186678 121075.319747911 567203.141340910
 4282.77529648059 123480.361858522 566687.090086803
 4034.28433917332 125654.008691796 566210.910041084
 3407.46503968965 127734.025335586 565749.421522966
 3053.16630800438 129473.834099505 565355.821106557
 2373.60383528358 131022.138745621 565002.270051508
 2087.39192054302 132264.705329196 564713.812934614
 1485.22718049251 133299.963324842 564472.243673520
 1330.97499892366 134131.441402263 564275.628512257
 843.510790111176 134762.780556639 564126.121949861
 813.993663423247 135307.255657979 563995.819116261
 430.604664874375 135652.136269588 563913.390960987
 490.929086084804 136018.027984800 563825.199021610
 187.356108461403 136170.578112491 563788.558374679
 300.409081009104 136435.921205412 563724.355655506
 55.0825459096081 136462.402252665 563718.023250406
 191.210392560760 136677.296752168 563665.929421946
 -10.2540525241676 136621.501425617 563679.488045347
 128.106448016639 136815.315961250 563632.462609422
 -37.4379253977781 136705.585733263 563659.100368057
 89.4872788942478 136893.828915059 563613.406154433
 -43.8064560711082 136748.782217925 563648.621610050
 63.1235200287521 136938.263609563 563602.615301791
 -39.3376581099614 136770.730303299 563643.296584685
 42.5019129741061 136963.061836879 563596.591442722
 -29.7595919449331 136782.532974609 563640.433066522
 24.2238386765844 136976.401227268 563593.350670527
 -18.6595687275257 136790.453837228 563638.511273694
 6.22411205241306 136983.089290299 563591.725639887
 -8.98871317486592 136798.181709831 563636.635963355
 -13.6674948359074 136986.351115056 563590.932699757
 -4.51576852002754 136808.285346637 563634.183704396
 -39.4639436410654 136989.042468778 563590.277316850
 -12.0248330307340 136823.317705254 563630.534647947
 -80.0913775296421 136994.698092583 563588.898293689
 -45.6806703338327 136846.953380661 563624.794755968
 -155.812529255216 137008.802992411 563585.453702491
 -136.499619647631 136885.582452118 563615.399616262
 -312.316627627737 137040.791477422 563577.611274229
 -353.308237236608 136951.003875422 563599.412447177
 -651.933698201924 137107.646390001 563561.059942795
 -849.234570690051 137065.450769660 563571.061185681
 -1402.81488372163 137240.904663771 563527.254174517
 -1964.66633629091 137271.653483467 563518.085988465
 -3071.92278376929 137501.202846936 563457.170072452
 -4454.56138493631 137654.297666241 563410.552986791
 -6782.11895056696 138010.166229211 563300.272394685
 -9987.91736442476 138387.800103010 563159.886967610
 -15010.2162374054 139021.820172608 562892.198315452
 -22235.4861203805 139841.573385720 562449.924446610
 -33181.0852870448 141072.785991674 561602.603832747
 -49185.7062803610 142779.009786717 559995.464858446
 -72974.1548665550 145204.054029492 556767.954730615
 -107700.619402323 148478.595409195 550231.481547238
 -158108.362861950 152589.844969579 536766.322346395
 -229325.546050816 156779.077699374 509146.457047703
 0.000000000000000 -0.000000000000000 0.000000000000000
 0.000000000000000 -0.000000000000000 0.000000000000000
 0.000000000000000 0.000000000000000 0.000000000000000
 -0.000000000000000 -0.000000000000000 -0.000000000000000
 0.000000000000000 0.000000000000000 -0.000000000000000
 -0.000000000000000 0.000000000000000 0.000000000000000
 0.000000000000000 0.000000000000000 -0.000000000000000
 -0.000000000000000 0.000000000000000 0.000000000000000
 -0.000000000000000 0.000000000000000 0.000000000000000
 -0.000000000000000 0.000000000000000 0.000000000000000
 -0.000000000000000 -0.000000000000000 -0.000000000000000
 -0.000000000000000 0.000000000000000 0.000000000000000
 0.000000000000000 0.000000000000000 -0.000000000000000
 -0.000000000000000 0.000000000000000 0.000000000000000
 -0.000000000000000 0.000000000000000 0.000000000000000
 0.000000000000000 0.000000000000000 0.000000000000000
 0.000000000000000 -0.000000000000000 0.000000000000000
 0.000000000000000 0.000000000000000 -0.000000000000000
 0.000000000000000 0.000000000000000 -0.000000000000000
 -0.000000000000000 0.000000000000000 0.000000000000000
 0.000000000000000 0.000000000000000 -0.000000000000000
 0.000000000000000 -0.000000000000000 0.000000000000000
 0.000000000000000 -0.000000000000000 0.000000000000000
 -0.000000000000000 0.000000000000000 0.000000000000000
 0.000000000000000 0.000000000000000 -0.000000000000000
 232516.327979812 125006.735318153 516439.225221983
 160841.309992983 121624.953455132 543817.472776278
 110017.820827472 116536.446958088 557418.456485573
 74955.4837894802 111608.978027120 564203.076448211
 51041.3707072341 107506.806133714 567659.286113822
 34786.1647140077 104329.236492741 569478.123510756
 23744.0801447515 101964.668887666 570472.983546731
 16228.7783614134 100241.538863902 571041.382597700
 11111.4891275988 99004.3040353969 571379.630886360
 7613.88955609517 98117.8552930690 571589.813728792
 5226.76578470261 97487.9372288895 571724.394279524
 3586.32539896602 97034.0022766004 571814.253645638
 2465.81077545987 96710.1854594693 571875.038627858
 1688.77592116500 96468.5077512545 571918.678701906
 1158.20680033971 96291.2540468413 571949.869263989
 782.215588652895 96145.2378843449 571975.070585192
 524.163866641110 96028.1408255506 571995.036186354
 329.642387306281 95910.6001300613 572014.902007446
 190.303715004329 95798.6978936692 572033.716896455
 67.1708756475681 95659.7126722300 572057.003155752
 -35.1369461872367 95504.0712034907 572083.010715188
 -150.773953749566 95289.7759825320 572118.725318804
 -269.785850366888 95028.7109725817 572162.102298365
 -426.366713594800 94663.4928342639 572222.545287970
 -608.676371406443 94205.1688109351 572298.012998803
 -851.456680202178 93574.4864559940 572401.162215818
 -1140.40320291865 92781.1781752512 572529.783030496
 -1505.28043704660 91719.4702438660 572699.985078567
 -1922.57981588655 90403.8877998840 572907.881563448
 -2402.17523401804 88706.1788569434 573171.390935333
 -2897.12456112838 86668.9877813804 573480.682522287
 -3373.70119473224 84167.0335897678 573850.615227471
 -3749.06947137641 81325.5444979491 574257.869158282
 -3931.15342118391 78077.6602851903 574707.251561323
 -3824.41326546796 74711.2146098266 575155.290573510
 -3313.01290069249 71270.3546964780 575594.962179967
 -2388.37927316681 68238.3380816540 575966.860904602
 -1001.75071592681 65712.6340306317 576264.562700380
 640.582936311765 64238.5454168276 576431.261241297
 2497.21425359362 63739.0979203638 576481.648725499
 4155.40353669619 64576.1851347265 576378.910904010
 5655.86871983490 66314.8526325805 576168.683173030
 6535.89230168255 69068.9990393595 575835.701813914
 7130.17408461373 72166.3054585973 575448.681442559
 6994.76832938534 75661.1089642307 575001.278091032
 6777.73023298669 78924.6343605028 574565.021963528
 5955.95405033370 82111.1351034715 574127.414519956
 5373.69134623508 84789.8281883507 573743.678376595
 4327.56860761871 87193.1641067175 573392.208076640
 3764.37370388455 89092.6477382999 573104.117599583
 2792.98152373337 90692.8552386472 572858.625895491
 2425.29183692493 91932.1528885666 572662.725541639
 1635.82287019533 92900.4134025628 572509.246452116
 1483.42010929696 93683.4149778540 572382.055294247
 872.630105420693 94212.6585148105 572296.438475962
 886.462743158120 94718.1979028449 572212.964873955
 414.075994159349 94960.1146059292 572173.404812824
 532.532645110709 95313.9242675156 572114.474777303
 158.571641038036 95371.6312122397 572105.083717101
 330.384288732074 95652.1619172333 572058.174285432
 26.8011753201142 95591.2343346858 572068.453246698
 215.553547680776 95843.3140813998 572026.234260775
 -33.8791520340078 95704.6612139155 572049.487958982
 147.892933943626 95951.5299088619 572008.113610138
 -55.3587017235496 95761.2093159767 572040.022835602
 104.398206976302 96012.9938797425 571997.809530127
 -55.9450950940086 95788.5873686197 572035.438937197
 72.7006711201737 96047.7430390959 571991.980513458
 -45.9212992740006 95802.1432790799 572033.169697675
 46.4649384180071 96066.8226146101 571988.779115240
 -31.2214980168167 95810.3400415329 572031.797862971
 22.4223950563983 96076.4845444064 571987.157735927
 -15.7695183814951 95817.9605688356 572030.522073562
 -1.60998362192741 96080.6601138800 571986.456788523
 -3.17892577785285 95828.0545068794 572028.831405656
 -28.4434246655073 96082.5325049410 571986.141561497
 1.40838939426763 95843.3098111583 572026.275587459
 -63.8498853927357 96085.7909161894 571985.591345798
 -11.7625522639388 95867.3701870412 572022.243619130
 -120.982370600646 96096.0712019216 571983.855071821
 -63.4489696312564 95906.6286471337 572015.659362371
 -229.840416252010 96123.1927322532 571979.264477605
 -199.437290239813 95973.2436448828 572004.455165384
 -458.170672362767 96185.1579284519 571968.710222783
 -521.684584533895 96090.6655340949 571984.538114808
 -957.862420966800 96315.6750369192 571946.127919199
 -1257.46726878651 96304.1054123214 571947.495891712
 -2067.84944004320 96578.6026381090 571898.852517788
 -2912.57943589371 96700.6985286918 571874.541997712
 -4541.76612561995 97095.9691375308 571796.943973735
 -6609.68147209882 97448.5540371979 571716.793025092
 -10049.7788002661 98102.0064397791 571554.895245028
 -14832.1103966001 98870.6099181337 571318.309697492
 -22277.7906141763 100041.391000488 570872.507773880
 -33043.0852704756 101567.738632750 570080.826712175
 -49294.7766286276 103704.261461866 568520.405220237
 -73097.9817435589 106512.103610786 565430.682621153
 -108315.992253867 110121.315766833 559053.612487963
 -159392.960534699 114327.170982805 545823.398277367
 -231997.289683124 118204.578380398 518271.102059142
 -0.000000000000000 0.000000000000000 -0.000000000000000
 0.000000000000000 0.000000000000000 -0.000000000000000
 -0.000000000000000 0.000000000000000 0.000000000000000
 0.000000000000000 0.000000000000000 -0.000000000000000
 0.000000000000000 0.000000000000000 0.000000000000000
 -0.000000000000000 0.000000000000000 0.000000000000000
 0.000000000000000 0.000000000000000 0.000000000000000
 0.000000000000000 0.000000000000000 0.000000000000000
 -0.000000000000000 -0.000000000000000 0.000000000000000
 -0.000000000000000 -0.000000000000000 0.000000000000000
 -0.000000000000000 -0.000000000000000 -0.000000000000000
 0.000000000000000 0.000000000000000 0.000000000000000
 -0.000000000000000 -0.000000000000000 0.000000000000000
 0.000000000000000 0.000000000000000 -0.000000000000000
 0.000000000000000 0.000000000000000 0.000000000000000
 0.000000000000000 0.000000000000000 -0.000000000000000
 -0.000000000000000 -0.000000000000000 0.000000000000000
 0.000000000000000 -0.000000000000000 -0.000000000000000
 0.000000000000000 -0.000000000000000 -0.000000000000000
 0.000000000000000 0.000000000000000 -0.000000000000000
 0.000000000000000 -0.000000000000000 0.000000000000000
 0.000000000000000 -0.000000000000000 0.000000000000000
 -0.000000000000000 0.000000000000000 -0.000000000000000
 0.000000000000000 0.000000000000000 0.000000000000000
 -0.000000000000000 0.000000000000000 -0.000000000000000
 220452.343788096 102052.709447157 526674.480692609
 149587.504116157 97723.6669087046 551791.322456430
 100946.439392301 91368.4519189833 563792.180123088
 68211.8577040978 85348.7601162258 569616.302097454
 46246.8583718151 80425.2382584322 572532.103153886
 31471.5247610761 76664.7819569143 574048.825742821
 21482.9531564663 73890.4154620544 574872.759161992
 14707.8521818405 71885.6352978758 575340.016444205
 10087.1713426778 70448.4283122425 575617.292932239
 6934.20769096421 69427.4126631762 575787.939379243
 4767.27374789064 68697.5012877425 575897.496450395
 3284.42132375968 68180.3119024909 575969.320055719
 2255.67784215396 67803.8547139990 576018.705601993
 1551.32037234544 67534.3449171980 576052.693476653
 1053.21452429589 67326.3478916300 576078.166240260
 710.936545301068 67170.6132411595 576096.869706853
 455.823580227779 67031.5745756972 576113.322389586