# ODT 1.0
# Table Start
# Title: mmArchive Data Table, Fri Apr 16 16:59:17 CEST 2021
# Columns: {Anv_SpinTEvolve:evolver:Total energy} {Anv_SpinTEvolve:evolver:Energy calc count} {Anv_SpinTEvolve:evolver:Max dm/dt} Anv_SpinTEvolve:evolver:dE/dt {Anv_SpinTEvolve:evolver:Delta E} {Anv_SpinTEvolve:evolver:average u} Oxs_UniformExchange:exchange:Energy {Oxs_UniformExchange:exchange:Max Spin Ang} {Oxs_UniformExchange:exchange:Stage Max Spin Ang} {Oxs_UniformExchange:exchange:Run Max Spin Ang} Oxs_DMExchange6Ngbr:dmi:Energy Oxs_UniaxialAnisotropy:uniaxialanisotropy:Energy Oxs_TimeDriver::Iteration {Oxs_TimeDriver::Stage iteration} Oxs_TimeDriver::Stage Oxs_TimeDriver::mx   Oxs_TimeDriver::my   Oxs_TimeDriver::mz   {Oxs_TimeDriver::Last time step} {Oxs_TimeDriver::Simulation time}
# Units:                     J                                        {}                                    deg/ns                             J/s                              J                                 m/s                                  J                                      deg                                            deg                                              deg                                     J                                       J                                    {}                            {}                          {}                   {}                   {}                   {}                          s                                 s                
                    -5.8912919215599998e-19                      151                                     5775.5357525400004               2.7217956167599999e-09             5.0774490595999999e-22                400                                 9.2006843634799992e-19                     27.520732790499999                             27.520732790499999                               27.520732790499999                     -2.3859484670800001e-18                     8.7675083857899991e-19                  23                            23                          0                     0.0067280078871799999 -0.00114219610669     0.87038891324800005        1.8629091449999999e-13              3.9999999999999999e-12       
                    -5.7699552865600002e-19                      290                                     6423.5049953999996               3.1291553070599999e-09             1.5916728689800001e-22                400                                 9.4310466387199997e-19                     28.460901735                                   28.460901735                                     28.460901735                           -2.4156574216499999e-18                     8.9555722912099997e-19                  46                            22                          1                     0.0088669918101500003  0.0015110768102999999  0.87086013782100002        5.0997998175799998e-14              7.9999999999999998e-12       
                    -5.6424428436500001e-19                      435                                     6328.1072997700003               3.2338819075000001e-09             2.1618095361000001e-22                400                                 9.6718921655099992e-19                     28.706988333000002                             28.743669638699998                               28.743669638699998                     -2.4468913025199999e-18                     9.154578015999999e-19                  69                            22                          2                     0.0085095873895000007  0.0038221847406300002  0.87251288030800001        6.6999657648699997e-14              1.2000000000000001e-11       
                    -5.5067214091599996e-19                      568                                     5964.9908447300004               3.4145741903699999e-09             6.3728367801500002e-22                400                                 9.9593803327700005e-19                     28.014404946900001                             28.706988333000002                               28.743669638699998                     -2.47246946946e-18                       9.25859295262e-19                    91                            21                          3                     0.0081179996488700001  0.0047105161958300003  0.87500461618000003        1.8041386564400001e-13              1.6e-11                   
                    -5.35559442993e-19                        701                                     5675.2677417499999               3.9452434556000001e-09             2.9640177939900002e-22                400                                 1.0281597532100001e-18                     26.615344116100001                             28.014404946900001                               28.743669638699998                     -2.4964218772999998e-18                     9.3270268109900003e-19                  114                           22                          4                     0.0084898140751900001  0.0048803383753400001  0.87790511617199996        7.5625014565099995e-14              1.9999999999999999e-11       
                    -5.1889095926999996e-19                      852                                     5744.5116479999997               4.2822782952700002e-09             2.6511800049600002e-22                400                                 1.06173774271e-18                       26.180945590499999                             26.615344116100001                               28.743669638699998                     -2.5219830197900002e-18                     9.4135431780799997e-19                  137                           22                          5                     0.0093474547440800006  0.0052080817248500002  0.88100691288599997        6.2165447407400002e-14              2.4000000000000001e-11       
                    -5.01134877555e-19                        991                                     5855.1944366099997               4.5321670008199998e-09             3.3980375173099999e-22                400                                 1.09590111625e-18                       26.810722681200001                             26.810722681200001                               28.743669638699998                     -2.54801653617e-18                       9.5098054236400005e-19                  160                           22                          6                     0.010255288862       0.0059726900015700003  0.88420931763800004        7.5141243691700005e-14              2.8e-11                   
                    -4.8248964246200004e-19                      1136                                    5793.8298446199997               4.7460189638799999e-09             2.52427716682e-22                  400                                 1.13129311488e-18                       27.1582371511                                  27.1582371511                                    28.743669638699998                     -2.5735756382100002e-18                     9.5979288086900005e-19                  183                           22                          7                     0.0110284438767      0.00695102517966     0.88728151469700001        5.3346117294200001e-14              3.1999999999999999e-11       
                    -4.6275308263899996e-19                      1275                                    5650.00134282                    5.0813567815699996e-09             3.8323026923099998e-22                400                                 1.1688691432499999e-18                     27.306319582                                   27.306319582                                     28.743669638699998                     -2.59971332957e-18                       9.6809110368699996e-19                  206                           22                          8                     0.011741977998300001  0.0079206916033599997  0.88985271239999997        7.5594339035400005e-14              3.5999999999999998e-11       
                    -4.4165001027299995e-19                      1420                                    5480.9421412900001               5.4130888535400001e-09             2.9644636152799998e-22                400                                 1.20882687308e-18                       27.3511056362                                  27.3511056362                                    28.743669638699998                     -2.6280290879199999e-18                     9.7755220456900002e-19                  229                           22                          9                     0.0125410472627      0.0088894814986799995  0.89155627456599995        5.4915790677000001e-14              3.9999999999999998e-11       
                    -4.1923072568800001e-19                      1559                                    5284.5139096000003               5.7267134035399999e-09             4.3741651241500002e-22                400                                 1.25040850165e-18                       27.3385361586                                  27.352874296900001                               28.743669638699998                     -2.6591772035100002e-18                     9.89537976173e-19                    252                           22                          10                    0.013457626423399999  0.0099795031645799996  0.89214866722899999        7.6522873273299995e-14              4.4000000000000003e-11       
                    -3.9587447998400001e-19                      1704                                    5009.6408165100001               5.8852706497999998e-09             3.4126230860899999e-22                400                                 1.2922539671399999e-18                     27.270508960299999                             27.3385361586                                    28.743669638699998                     -2.6926492771399999e-18                     1.0045208300200001e-18                  275                           22                          11                    0.0143823698856      0.0112721145952      0.89153274601700006        5.8086461947999994e-14              4.8000000000000002e-11       
                    -3.7212103486300001e-19                      1843                                    4600.2417785099997               5.9300542201200003e-09             4.4965510731199998e-22                400                                 1.3327738602599999e-18                     27.417941616899999                             27.417941616899999                               28.743669638699998                     -2.7272557780000001e-18                     1.02236088288e-18                    298                           22                          12                    0.015138450261000001  0.0127567868087      0.88973716463600006        7.5909067467700004e-14              5.2000000000000001e-11       
                    -3.4850256569000002e-19                      1988                                    4058.9999293800001               5.8315440789900004e-09             3.9333510987599998e-22                400                                 1.37057704344e-18                       27.462441300999998                             27.4771457507                                    28.743669638699998                     -2.7617106055100001e-18                     1.04263099638e-18                    321                           22                          13                    0.0155363147686      0.0143392399317      0.88691254702699995        6.7491985912399994e-14              5.6e-11                   
                    -3.2555219724700002e-19                      2121                                    4268.3467150400002               5.4445767020500001e-09             1.17717872731e-21                  400                                 1.40503846824e-18                       27.290071241                                   27.462441300999998                               28.743669638699998                     -2.7951891032100002e-18                     1.0645984377199999e-18                  343                           21                          14                    0.0153775048789      0.0158365263694      0.88335111562000002        2.0837626017100001e-13              6e-11                     
                    -3.0392481442799998e-19                      2266                                    4422.6179031199999               5.0930213840200004e-09             2.8562256323499999e-22                400                                 1.4367615625299999e-18                     27.5310624209                                  27.5310624209                                    28.743669638699998                     -2.82757143669e-18                       1.0868850597299999e-18                  366                           22                          15                    0.014460758888999999  0.016935226613399999  0.87951376344800003        5.64010979128e-14                6.3999999999999999e-11       
                    -2.8438512556599999e-19                      2405                                    5099.0616704800004               4.50562825448e-09               3.4827592790000001e-22                400                                 1.46771928898e-18                       27.4830192322                                  27.5455788449                                    28.743669638699998                     -2.8590095304199999e-18                     1.1069051158799999e-18                  389                           22                          16                    0.012649808895       0.0171384781132      0.87604428757499997        7.7444996368499994e-14              6.7999999999999998e-11       
                    -2.6805925918999998e-19                      2550                                    6407.1327032500003               3.55603625144e-09               2.22903583856e-22                  400                                 1.5012017821600001e-18                     27.207452646099998                             27.4830192322                                    28.743669638699998                     -2.8895617050900002e-18                     1.1203006637399999e-18                  412                           22                          17                    0.010064655079399999  0.0157756568472      0.87370198042699998        6.2762491404000006e-14              7.1999999999999997e-11       
                    -2.5538317981699998e-19                      2683                                    6933.7101416100004               2.4427328811300002e-09             6.1586684332499997e-22                400                                 1.5403708476700001e-18                     26.836433202999999                             27.207452646099998                               28.743669638699998                     -2.9197719791700002e-18                     1.1240179516800001e-18                  434                           21                          18                    0.0074033965094300004  0.0124703915007      0.87302478199300004        2.06988857164e-13                7.5999999999999996e-11       
                    -2.4367945985399998e-19                      2828                                    6893.5538517000005               2.9379696638599999e-09             1.62837536761e-22                  400                                 1.58231704226e-18                       28.200061372099999                             28.200061372099999                               28.743669638699998                     -2.9485637842099999e-18                     1.1225672820900001e-18                  457                           22                          19                    0.0056611847032100003  0.00822205383182     0.87384713424500005        5.7230539737899996e-14              7.9999999999999995e-11       
                    -2.28970188872e-19                        2967                                    6194.2960664599996               4.0266682822099998e-09             2.0596078547900001e-22                400                                 1.62312671517e-18                       31.4756979245                                  31.4756979245                                    31.4756979245                          -2.9739440741599999e-18                     1.1218471701199999e-18                  480                           22                          20                    0.00503982029233     0.0049062206997899996  0.87531979642199997        5.2036784887399998e-14              8.3999999999999994e-11       
                    -2.10213671026e-19                        3112                                    6512.0556876800001               4.86465047155e-09               2.34237051764e-22                  400                                 1.6639440225299999e-18                     33.581921638399997                             33.581921638399997                               33.581921638399997                     -2.9994091249199999e-18                     1.12525143137e-18                    503                           22                          21                    0.0048774574195200003  0.00342693399163     0.87640688330600003        4.8696952789300001e-14              8.8000000000000006e-11       
                    -1.9002126260100001e-19                      3251                                    6603.4829857499999               4.7914471894100003e-09             3.7301722047100001e-22                400                                 1.7021829907799999e-18                     33.274657163400001                             33.740330453200002                               33.740330453200002                     -3.0269642279899999e-18                     1.1347599746e-18                     526                           22                          22                    0.0044220368024899996  0.00342256315606     0.87653283208099997        7.8250658651400002e-14              9.2000000000000005e-11       
                    -1.73212128479e-19                        3396                                    6348.96247726                    3.2193870595299998e-09             1.9160420557599999e-22                400                                 1.72969552251e-18                       30.884648908700001                             33.274657163400001                               33.740330453200002                     -3.0512052546399998e-18                     1.1482976036500001e-18                  549                           22                          23                    0.0035188820702999998  0.0039216900234800003  0.875926765366             5.9666435882399997e-14              9.6000000000000005e-11       
                    -1.6609745942e-19                         3535                                    7868.6757796600004              -5.9307617424299995e-11            -3.25367652028e-24                  400                                 1.7402075418799999e-18                     26.530827669800001                             30.884648908700001                               33.740330453200002                     -3.06375845243e-18                       1.1574534511300001e-18                  572                           22                          24                    0.00287402181111     0.0039338478692300003  0.87563104809199999        6.9414513210600005e-14              1e-10                     
                    -1.73629645443e-19                        3674                                    9016.1953501299995              -4.09309551199e-09              -6.4023649955400001e-22                400                                 1.73637389751e-18                       25.7504530627                                  26.530827669800001                               33.740330453200002                     -3.0603274165000002e-18                     1.1503238735499999e-18                  594                           21                          25                    0.00387246439533     0.0030525088070299999  0.87687161961399995        1.80504521542e-13                1.04e-10                  
                    -1.9082854781600001e-19                      3813                                    9479.2850751999995              -5.2312207288800001e-09            -2.6656348723099999e-22                400                                 1.72217281439e-18                       25.254615868399998                             25.7504530627                                    33.740330453200002                     -3.0451278128399999e-18                     1.1321264506400001e-18                  617                           22                          26                    0.0068559664271699997  0.0022780237066600002  0.87985908023000003        4.9596390420600002e-14              1.08e-10                  
                    -2.1017825102799999e-19                      3952                                    9457.1251264099992              -4.9879642834800004e-09            -4.1355422503600001e-22                400                                 1.6949359354499999e-18                     25.439838731999998                             25.439838731999998                               33.740330453200002                     -3.0187929963299999e-18                     1.1136788098500001e-18                  640                           22                          27                    0.0098614889304999998  0.00283761800033     0.88425515452000003        8.1699208611599996e-14              1.12e-10                  
                    -2.2961058208799999e-19                      4097                                    9237.9223792899993              -4.9493166610499999e-09            -3.6611689024699999e-22                400                                 1.6547997804799999e-18                     25.721416795100001                             25.721416795100001                               33.740330453200002                     -2.97648759886e-18                       1.0920772362900001e-18                  663                           22                          28                    0.010945259345500001  0.0044961108971000004  0.88981518107000002        7.3451249100999996e-14              1.16e-10                  
                    -2.4914336865199999e-19                      4230                                    8977.29085184                   -6.0089574886599998e-09            -9.2499635927700005e-22                400                                 1.60635993497e-18                       26.238214382399999                             26.238214382399999                               33.740330453200002                     -2.91900476873e-18                       1.0635014651200001e-18                  685                           21                          29                    0.0098361714183300003  0.0061833732840899996  0.89617072826400002        1.8687884454200001e-13              1.2e-10                   
                    -2.6860113680400002e-19                      4363                                    8843.1581985299999              -5.6217024922299998e-09            -2.8149214220399999e-22                400                                 1.5552962542999999e-18                     26.619395772400001                             26.619395772400001                               33.740330453200002                     -2.8544961549799999e-18                     1.0305987638800001e-18                  708                           22                          30                    0.0076205514884700003  0.0070549998819100001  0.90283685811900005        4.7838880549299999e-14              1.2400000000000001e-10       
                    -2.8638351734499999e-19                      4502                                    9042.92339971                   -4.3446179248299999e-09            -3.6291710888300001e-22                400                                 1.50680753705e-18                       26.611877948                                   26.662892611099998                               33.740330453200002                     -2.79029562577e-18                       9.9710457138300006e-19                  731                           22                          31                    0.0057393308241800002  0.00687088757932     0.90944884749199995        8.0832883916000001e-14              1.28e-10                  
                    -3.0120032556999999e-19                      4647                                    8686.0677106599996              -3.4018820988899998e-09            -2.6330889893400002e-22                400                                 1.4638300506200001e-18                     26.061541946999998                             26.611877948                                     33.740330453200002                     -2.7286895185299999e-18                     9.6365914234500004e-19                  754                           22                          32                    0.0048988548480799997  0.0059730259636400001  0.91581243920699995        7.6212964880599995e-14              1.3200000000000001e-10       
                    -3.1292742604999998e-19                      4792                                    7412.4428064900003              -2.6202122911699999e-09            -1.8155386872700001e-22                400                                 1.4290024702400001e-18                     26.6108959988                                  26.650359187799999                               33.740330453200002                     -2.6738208688600001e-18                     9.31890972576e-19                    777                           22                          33                    0.00485257331471     0.0050850487514899996  0.92166109018599995        6.8400216428900004e-14              1.36e-10                  
                    -3.21695671209e-19                        4937                                    6216.7105212099996              -1.9532223854700001e-09            -1.03294021343e-22                  400                                 1.4029497326299999e-18                     26.9304647389                                  26.9304647389                                    33.740330453200002                     -2.62876810207e-18                       9.0412269823499991e-19                  800                           22                          34                    0.0050505878122299999  0.0047523449114599998  0.92667627211500003        5.1780813957699997e-14              1.4000000000000001e-10       
                    -3.27701425695e-19                        5076                                    7284.1187096000003              -1.2395955092500001e-09            -9.4011351515300003e-23                400                                 1.38264384064e-18                       27.407728559100001                             27.407728559100001                               33.740330453200002                     -2.5915442408799999e-18                     8.8119897454199997e-19                  823                           22                          35                    0.00514805932193     0.0048896505553000002  0.93067545932999995        7.3890632113800002e-14              1.4399999999999999e-10       
                    -3.31370131074e-19                        5221                                    7832.3124441999998              -8.3350214805700002e-10            -4.6811737847299998e-23                400                                 1.36561248607e-18                       28.2957118297                                  28.2957118297                                    33.740330453200002                     -2.5598749346200001e-18                     8.6289231747799999e-19                  846                           22                          36                    0.0050359076293500001  0.0050942492757600003  0.93367676348899997        5.2952113520000002e-14              1.4800000000000001e-10       
                    -3.3340304831999998e-19                      5360                                    7623.4029006800001              -4.1338825477499999e-10            -3.49340860129e-23                  400                                 1.3517950671599999e-18                     28.13788692                                    28.3925222875                                    33.740330453200002                     -2.5340612746000002e-18                     8.4886315912e-19                     869                           22                          37                    0.0047870855432600003  0.0051305010285699996  0.93579717964999998        7.7802292506599996e-14              1.5199999999999999e-10       
                    -3.3432086367000002e-19                      5505                                    6777.0612303500002              -2.4048298715400002e-10            -1.7101374620400001e-23                400                                 1.34245343606e-18                       28.221093009200001                             28.2587584515                                    33.740330453200002                     -2.5165839939600001e-18                     8.3980969423299999e-19                  892                           22                          38                    0.0045495089973100001  0.0050093180610999996  0.93714284216900001        6.0247056811700002e-14              1.56e-10                  