# OOMMF OVF 2.0
#
# Segment count: 1
#
# Begin: Segment
# Begin: Header
#
# Title: Oxs_TimeDriver::Magnetization
# Desc: Oxs vector field output
# Desc:  MIF source file: C:/Users/Victor H. González/Documents/GitHub/Intro-to-magnetism-in-python/domain_wall_conversion_thin_film/drive-50/domain_wall_conversion_thin_film.mif
# Desc:  Iteration: 1990, State id: 14420
# Desc:  Stage: 86, Stage iteration: 22
# Desc:  Stage simulation time: 4e-12 s
# Desc:  Total simulation time: 3.48e-10 s
# meshunit: m
# meshtype: rectangular
# xbase: 1.0000000000000001e-09
# ybase: 1.0000000000000001e-09
# zbase: 1.0000000000000001e-09
# xnodes: 125
# ynodes: 25
# znodes: 1
# xstepsize: 2.0000000000000001e-09
# ystepsize: 2.0000000000000001e-09
# zstepsize: 2.0000000000000001e-09
# xmin: 0
# ymin: 0
# zmin: 0
# xmax: 2.5000000000000004e-07
# ymax: 5.0000000000000004e-08
# zmax: 2.0000000000000001e-09
# valuedim: 3
# valuelabels: Magnetization_x Magnetization_y Magnetization_z
# valueunits: A/m A/m A/m
#
# End: Header
#
# Begin: Data Text
 0.000000000000000 -0.000000000000000 -0.000000000000000
 -0.000000000000000 0.000000000000000 0.000000000000000
 0.000000000000000 0.000000000000000 -0.000000000000000
 0.000000000000000 0.000000000000000 0.000000000000000
 0.000000000000000 0.000000000000000 0.000000000000000
 0.000000000000000 -0.000000000000000 0.000000000000000
 -0.000000000000000 -0.000000000000000 0.000000000000000
 -0.000000000000000 -0.000000000000000 -0.000000000000000
 -0.000000000000000 0.000000000000000 -0.000000000000000
 -0.000000000000000 -0.000000000000000 -0.000000000000000
 0.000000000000000 -0.000000000000000 -0.000000000000000
 0.000000000000000 0.000000000000000 0.000000000000000
 0.000000000000000 0.000000000000000 -0.000000000000000
 0.000000000000000 0.000000000000000 0.000000000000000
 0.000000000000000 0.000000000000000 -0.000000000000000
 -0.000000000000000 0.000000000000000 -0.000000000000000
 0.000000000000000 -0.000000000000000 -0.000000000000000
 -0.000000000000000 -0.000000000000000 0.000000000000000
 0.000000000000000 -0.000000000000000 -0.000000000000000
 -0.000000000000000 -0.000000000000000 -0.000000000000000
 0.000000000000000 -0.000000000000000 0.000000000000000
 0.000000000000000 -0.000000000000000 0.000000000000000
 0.000000000000000 0.000000000000000 -0.000000000000000
 -0.000000000000000 -0.000000000000000 0.000000000000000
 0.000000000000000 -0.000000000000000 0.000000000000000
 243762.398846299 280160.436964062 445522.190770341
 176020.461822465 279203.721368071 476929.847036256
 124307.225420344 277649.679635996 493820.178917716
 86656.8977036643 275995.226971486 502709.873355731
 59949.6271859676 274529.616817593 507384.993560362
 41285.6588823045 273346.321273113 509879.675038249
 28356.1210093858 272437.205017279 511247.395811142
 19447.2293764083 271758.529060786 512024.518116369
 13327.2373033929 271258.808962655 512485.163986257
 9131.82388771361 270894.480049854 512769.724604528
 6257.45981366253 270628.676321251 512953.178905529
 4290.03734745315 270435.904691555 513075.059843312
 2942.16811348828 270294.606170616 513159.009978256
 2019.67839257571 270192.227048527 513217.382150827
 1386.75644046294 270116.203220711 513259.499341418
 953.496087325715 270061.397452760 513289.326258665
 655.433381014546 270019.758523267 513311.699081678
 451.486803916064 269990.287915559 513327.420454957
 310.595389329763 269966.956798891 513339.795620065
 214.391522134454 269951.205443172 513348.128189880
 147.514308258302 269937.720553832 513355.242752745
 102.064635060069 269929.539340123 513359.555647345
 70.1912216098994 269921.378066554 513363.852190476
 48.6875142447414 269917.462210642 513365.913577531
 33.4634529494179 269912.167388476 513368.698671678
 23.2312628807610 269910.707635284 513369.466723654
 15.9951993275746 269906.908055318 513371.464660992
 11.0113712864565 269906.869357350 513371.485137677
 7.70726395354913 269903.753356995 513373.123434023
 5.16269411959441 269904.512321049 513372.724443054
 4.02181154841843 269901.630600755 513374.239500658
 2.70998153878260 269902.941610959 513373.550255959
 3.00016370277830 269900.302035953 513374.937985777
 2.14975470844108 269902.398479512 513373.835806214
 2.93860992969254 269900.358765237 513374.908161434
 0.967432560998945 269903.362635271 513373.328911074
 0.199634480819010 269901.361257943 513374.381120708
 -5.32137645102976 269903.389773680 513373.314616528
 -9.37943325242948 269897.906896204 513376.197115793
 -18.5160559902474 269893.803590098 513378.354082858
 -22.6932884126176 269879.025813366 513386.122631926
 -28.4763335325999 269863.914425214 513394.065879417
 -21.9873357626292 269838.382710813 513407.486050378
 -11.9558003251337 269816.392733364 513419.043345116
 16.1149918523199 269791.495473772 513432.126683102
 46.2555284272468 269780.803202951 513437.743142824
 88.9009000051143 269779.149948889 513438.606212549
 116.540456301481 269801.534073487 513426.838634206
 134.343600538548 269837.609771163 513407.875187733
 104.631394086677 269892.576939199 513378.988628665
 33.1381614780441 269944.998730734 513351.435726176
 -119.803256449655 269986.140052887 513329.786615313
 -336.719647842346 269984.225034993 513330.697360028
 -648.571443826588 269920.824130971 513363.738547572
 -1015.73411995522 269763.935721534 513445.603027454
 -1454.12145461059 269497.886975682 513584.242794147
 -1899.00902431131 269106.987859536 513787.721583431
 -2354.88291552899 268593.205980956 514054.612105879
 -2740.41942079237 267972.140472917 514376.731619696
 -3063.64765802770 267270.818226453 514739.666032831
 -3244.91596775507 266539.036029852 515117.863010631
 -3316.11590798437 265819.166060837 515489.257240154
 -3217.35646760703 265179.827796712 515819.064737885
 -3016.37443986124 264651.811441495 516091.387436347
 -2676.99499923266 264296.705712085 516275.202820660
 -2295.10670980272 264105.569918548 516374.844878398
 -1844.22016350126 264116.986531137 516370.812767046
 -1425.81830361392 264273.309349056 516292.150829221
 -1004.32862020196 264596.993874324 516127.331340527
 -666.755576076381 264995.114570000 515923.584158579
 -360.971411984207 265495.124026269 515666.761404995
 -152.726930986782 265989.362870874 515412.102607255
 20.2683520690285 266527.654499550 515133.971871553
 110.257584484415 267000.698686142 514888.934377480
 177.637692295579 267485.563651075 514637.194228241
 187.436164810706 267874.493052957 514434.855777974
 188.030101737378 268267.023681393 514230.268119067
 154.312404435708 268555.273986634 514079.800227208
 116.753243412315 268853.149511410 513924.090081868
 59.2695241925855 269050.981643503 513820.557941964
 -8.45757680254572 269269.685321387 513705.982538057
 -94.3730986930970 269398.027206015 513638.680427424
 -211.939676537537 269558.446240301 513554.475340337
 -364.591812635200 269640.023128364 513511.562674246
 -594.002035218094 269762.778943249 513446.871894647
 -909.259795909917 269818.872006867 513416.935400037
 -1393.23513328945 269923.056920443 513361.083681444
 -2084.39162323254 269973.907748515 513332.002164834
 -3137.92107248365 270079.365104513 513271.166145231
 -4673.62411923180 270149.127970936 513222.764395867
 -6989.76844317541 270285.678913159 513124.541326532
 -10398.9618090978 270418.789679445 512996.627456358
 -15497.7022064711 270653.900400617 512743.880923266
 -23025.5294850528 270959.824719289 512299.324984940
 -34200.6437900586 271465.864848546 511406.492123806
 -50647.2880354080 272209.499059845 509643.837239544
 -74779.9105941432 273359.364685551 506046.067774708
 -109730.961365899 274998.442572963 498733.368344410
 -159349.443306206 277201.516377663 483908.125821346
 -226877.976376032 279855.288843385 454540.868505685
 -0.000000000000000 -0.000000000000000 -0.000000000000000
 -0.000000000000000 -0.000000000000000 -0.000000000000000
 0.000000000000000 0.000000000000000 -0.000000000000000
 0.000000000000000 -0.000000000000000 0.000000000000000
 -0.000000000000000 -0.000000000000000 -0.000000000000000
 -0.000000000000000 -0.000000000000000 -0.000000000000000
 0.000000000000000 0.000000000000000 0.000000000000000
 0.000000000000000 0.000000000000000 -0.000000000000000
 0.000000000000000 0.000000000000000 -0.000000000000000
 0.000000000000000 0.000000000000000 -0.000000000000000
 -0.000000000000000 0.000000000000000 0.000000000000000
 -0.000000000000000 -0.000000000000000 0.000000000000000
 0.000000000000000 -0.000000000000000 -0.000000000000000
 -0.000000000000000 -0.000000000000000 -0.000000000000000
 -0.000000000000000 0.000000000000000 0.000000000000000
 -0.000000000000000 0.000000000000000 0.000000000000000
 -0.000000000000000 -0.000000000000000 -0.000000000000000
 0.000000000000000 0.000000000000000 -0.000000000000000
 0.000000000000000 -0.000000000000000 0.000000000000000
 -0.000000000000000 -0.000000000000000 -0.000000000000000
 -0.000000000000000 0.000000000000000 0.000000000000000
 0.000000000000000 -0.000000000000000 -0.000000000000000
 0.000000000000000 0.000000000000000 -0.000000000000000
 0.000000000000000 -0.000000000000000 0.000000000000000
 -0.000000000000000 0.000000000000000 0.000000000000000
 241737.953956354 212040.879083681 482702.213807245
 172208.682663368 209332.124694804 512761.378407253
 120624.554442739 205978.889552283 528604.212927119
 83644.3629058543 202948.688873439 536857.010980230
 57660.7831772248 200507.720840319 541176.392654752
 39613.6461725716 198647.104203703 543479.610499232
 27166.0398844742 197272.603040514 544743.541831030
 18611.8422587555 196272.254186652 545463.840748610
 12749.0399858548 195552.929071845 545890.569538311
 8732.39432040840 195035.194734798 546154.756551833
 5985.02442201281 194666.042992374 546323.449238964
 4102.43061128329 194399.096314509 546435.871274188
 2815.57353810714 194209.704262928 546511.356986987
 1931.82980617242 194070.425853837 546564.669405652
 1328.30147430830 193972.837775904 546601.110335824
 912.042167269692 193898.569542125 546628.313306768
 628.567609062019 193848.345352853 546646.525559910
 431.579231847369 193807.422566454 546661.226627163
 298.347887422545 193782.085827521 546670.297529391
 204.570708730144 193758.380880743 546678.742946255
 142.015640834213 193746.445721790 546682.992786250
 97.0662151221018 193731.626296133 546688.254447455
 67.7611850031035 193727.141521753 546689.848128015
 46.1021530046397 193716.830669631 546693.504067777
 32.3435132648453 193716.664636573 546693.563887466
 21.9687090778336 193708.516357231 546696.451614657
 15.3096384770264 193710.974941034 546695.580696432
 10.6027760090234 193703.680110402 546698.165534940
 7.00000655541120 193707.791769667 546696.708750583
 5.45707411307327 193700.602302749 546699.256115986
 3.05093837086516 193705.856372732 546697.394540708
 3.70808103340487 193698.529612977 546699.990499379
 1.55434815379888 193704.949774149 546697.715772233
 3.76089966428369 193697.796777856 546700.250145598
 0.536040274086955 193705.688687673 546697.453963110
 2.72553402055560 193698.734702799 546699.917840771
 -4.01489511309381 193707.085276476 546696.959107670
 -3.95761963763088 193697.895737299 546700.215082526
 -15.7364442290427 193702.290799463 546698.657663803
 -16.6327768695718 193685.132852973 546704.736612989
 -29.0953149021880 193679.451304355 546706.748902834
 -22.0441276133450 193650.435607197 546717.027632394
 -23.4036766807236 193635.292343902 546722.391174131
 4.54186861052371 193602.537900034 546733.991350490
 23.1549702543984 193594.125599937 546736.969663697
 72.3485243005880 193581.491117918 546741.438947383
 96.5338907161998 193606.682620502 546732.515153336
 135.226322432935 193638.382005769 546721.280661389
 114.108753019597 193709.468132782 546696.102908103
 76.6121955560670 193778.494319949 546671.646667051
 -64.4780284767558 193861.072064999 546642.369909608
 -250.170420241389 193903.645398322 546627.216406211
 -569.769346364983 193904.233394126 546626.768128609
 -934.864948076046 193805.754759344 546661.188900117
 -1427.76127344015 193598.421309472 546733.584814602
 -1921.86641100065 193240.456281471 546858.695172370
 -2492.02676571138 192730.478325625 547036.335655114
 -2976.04011558351 192064.942340948 547267.942701561
 -3453.98067339745 191264.114158789 547545.531122812
 -3744.60997402450 190378.232030504 547852.267189872
 -3957.52614982099 189445.789470258 548173.905652909
 -3917.12374883230 188565.955955634 548477.471183707
 -3785.38425498845 187765.825695993 548752.827388383
 -3407.99740489751 187166.706970303 548959.934198827
 -3000.40862586283 186738.914208916 549107.981610314
 -2421.50295907044 186598.651466920 549158.519549816
 -1913.29614107983 186628.965723743 549150.223937642
 -1324.69334831950 186940.959854841 549045.829340396
 -889.036060467395 187334.787843207 548912.458301526
 -432.394193372742 187944.215565656 548704.642654563
 -158.643232932508 188512.871704550 548509.682716749
 119.597683014231 189226.851874378 548263.790730435
 231.978115831565 189796.580393170 548066.788135546
 357.355214949645 190471.791573606 547832.427766001
 357.313724201518 190940.077980972 547669.388360828
 381.490215581502 191507.664779339 547471.157958098
 323.867186954521 191841.939015346 547354.150020695
 291.436279293515 192289.741034343 547197.012562971
 213.445142413102 192500.661216445 547122.883703837
 147.427575003718 192845.485318032 547001.459831290
 60.3345943156310 192961.548700683 546960.544356511
 -42.7925813494647 193229.308492537 546866.009647968
 -158.210177249611 193282.264140169 546847.274235128
 -335.755948070007 193498.909030766 546770.572975399
 -542.064879773750 193518.748553077 546763.385866425
 -887.623876107846 193708.757470373 546695.646043700
 -1327.52472707098 193724.682144285 546689.112024553
 -2049.17920388524 193914.368920015 546619.628618422
 -3034.81018287902 193960.608011511 546598.639283852
 -4590.09885257273 194187.475936758 546507.232506427
 -6804.77521792213 194318.343090330 546437.623679833
 -10199.9339860141 194655.169586019 546264.886570717
 -15139.7842388438 194983.944150000 546033.010409545
 -22576.5836265349 195599.839507817 545555.680619559
 -33490.2733726755 196391.877973022 544709.676667904
 -49707.7495852765 197683.901258763 543001.118612368
 -73456.1952200558 199517.622020182 539626.635635422
 -108144.080633724 202235.618568737 532734.091649866
 -157873.137315780 205860.873371869 518745.962228762
 -227293.664644249 210024.702007415 490537.679041360
 -0.000000000000000 0.000000000000000 -0.000000000000000
 -0.000000000000000 -0.000000000000000 0.000000000000000
 -0.000000000000000 -0.000000000000000 -0.000000000000000
 0.000000000000000 0.000000000000000 0.000000000000000
 0.000000000000000 -0.000000000000000 -0.000000000000000
 -0.000000000000000 0.000000000000000 0.000000000000000
 0.000000000000000 0.000000000000000 -0.000000000000000
 -0.000000000000000 0.000000000000000 0.000000000000000
 0.000000000000000 0.000000000000000 0.000000000000000
 0.000000000000000 -0.000000000000000 -0.000000000000000
 -0.000000000000000 0.000000000000000 0.000000000000000
 -0.000000000000000 0.000000000000000 0.000000000000000
 -0.000000000000000 0.000000000000000 -0.000000000000000
 -0.000000000000000 -0.000000000000000 0.000000000000000
 -0.000000000000000 0.000000000000000 0.000000000000000
 0.000000000000000 0.000000000000000 -0.000000000000000
 -0.000000000000000 0.000000000000000 -0.000000000000000
 -0.000000000000000 0.000000000000000 0.000000000000000
 0.000000000000000 -0.000000000000000 0.000000000000000
 0.000000000000000 0.000000000000000 -0.000000000000000
 -0.000000000000000 -0.000000000000000 0.000000000000000
 -0.000000000000000 0.000000000000000 -0.000000000000000
 -0.000000000000000 -0.000000000000000 -0.000000000000000
 -0.000000000000000 0.000000000000000 -0.000000000000000
 0.000000000000000 -0.000000000000000 0.000000000000000
 238699.598486217 160775.455268003 503561.073421969
 167652.065239579 157708.864896906 532372.706807772
 116134.472803047 153446.815008405 547144.276393836
 79871.7008686742 149435.615281255 554697.672868616
 54737.5179211989 146138.120861378 558612.078067536
 37457.8948471719 143601.625619978 560691.964658776
 25620.7334967692 141716.718950369 561836.230217516
 17529.7200669723 140347.555773324 562490.242140099
 11997.5219759196 139360.808087850 562880.648659677
 8219.34612546746 138658.503431894 563121.888915089
 5632.47727717273 138154.922358021 563277.456168779
 3865.67710184179 137799.933674425 563379.299246847
 2652.16386238094 137542.760372779 563449.159282258
 1824.04714162533 137363.738791962 563496.118990290
 1252.24763605811 137230.338186710 563530.182117178
 863.430966947349 137140.345124830 563552.819375440
 592.506945093110 137069.077822887 563570.507425915
 409.941933092284 137024.673357886 563581.467792170
 280.669778272385 136984.686327653 563591.267618822
 195.185030782549 136964.135393841 563596.298354258
 132.953098327949 136939.865434252 563602.213957967
 93.1692598219769 136932.196858177 563604.085136971
 62.9312573059708 136915.687512884 563608.100148083
 44.5230551224043 136915.296856580 563608.196803748
 29.8063335730970 136902.412391182 563611.327594697
 21.1507842827721 136906.385558737 563610.362880144
 14.2458753230408 136894.917059098 563613.148782423
 9.72763587615982 136901.675214382 563611.507360229
 7.14421213399261 136890.397820426 563614.246567211
 4.08434050961782 136899.078404286 563612.138190241
 4.44644521634326 136887.433890298 563614.966464836
 1.54831696072818 136897.808118857 563612.446748522
 4.24466055886212 136885.947262819 563615.327527511
 0.219136476263545 136898.328076400 563612.320456037
 3.98442213705265 136886.561793710 563615.178277184
 -3.62133016166534 136900.474401715 563611.799109522
 -1.03446452764289 136887.127656794 563615.040857501
 -14.5940969486046 136898.774796773 563612.211761026
 -13.1228405098863 136878.336540082 563617.175761892
 -29.8270006422671 136880.917493987 563616.548316632
 -21.4967689353939 136847.987007093 563624.545233789
 -29.6328168803490 136839.871665364 563626.515207103
 0.375159234683801 136800.673948092 563636.031147058
 13.1142862062018 136797.462974511 563636.810323592
 70.1028965129474 136778.224378299 563641.475072145
 93.8482506884835 136812.705096319 563633.103105853
 148.747338116848 136847.638267461 563624.610689462
 130.640764100144 136944.675999995 563601.045641548
 109.841274328134 137040.185607044 563577.834432548
 -40.3634500154361 137175.777391599 563544.855772637
 -231.241560047817 137272.327294843 563521.299230471
 -600.449246311219 137346.580895071 563502.933601180
 -1023.22522942238 137310.232480986 563511.182733890
 -1635.74697516780 137162.153378705 563545.799391983
 -2262.26353118153 136824.752746101 563625.646328912
 -3032.05147020667 136296.505459590 563750.005998568
 -3713.77861567327 135540.522163526 563928.164485542
 -4438.52784710156 134575.691777905 564153.952971216
 -4932.24689728511 133435.945887887 564420.518129479
 -5355.44878059722 132169.444067152 564714.580317649
 -5423.16545710192 130892.376725860 565011.305189091
 -5364.32804809856 129657.445124602 565296.533607233
 -4917.05143897683 128638.403703244 565533.362143939
 -4399.67072423801 127828.552429328 565721.224704660
 -3577.69192461918 127411.861361372 565821.012074422
 -2833.16101181395 127255.930791703 565860.319581625
 -1925.71284597218 127534.108771002 565801.504708163
 -1243.29518644526 127971.312486402 565704.690980716
 -506.857738687666 128763.594178962 565526.020541361
 -65.9959132096364 129527.584947764 565351.749251861
 392.635279421644 130536.869288876 565119.431265459
 569.738844080585 131341.905022411 564932.721111756
 778.188325463250 132323.991702572 564703.245645735
 766.081782036100 132988.349464041 564547.174313656
 808.148700405154 133818.941053595 564350.811030667
 700.437863226544 134280.145385409 564241.395097943
 654.120662415245 134933.985531980 564085.447139540
 519.976526872754 135206.506633302 564020.327814902
 432.644805534729 135709.562672778 563899.572102725
 305.375057829286 135839.092436511 563868.466676493
 191.021719158934 136231.996867368 563773.719270624
 69.0252484772359 136268.178713270 563765.003086999
 -91.2279606239561 136589.260835218 563687.294075313
 -247.439486905726 136576.334817626 563690.379145754
 -515.358510731125 136858.940513724 563621.650406606
 -803.252935770820 136837.376983137 563626.549272740
 -1318.74784108043 137115.098438681 563558.081021186
 -1950.34878447575 137129.546898774 563552.733563556
 -3019.36842610683 137447.201494563 563470.629417027
 -4454.52630323152 137561.504339218 563433.216734109
 -6748.81573401691 137996.036745040 563304.133953276
 -9992.59129377431 138323.530599327 563175.593400294
 -14989.3974843386 139027.858667632 562891.261681463
 -22240.0962148867 139795.167896348 562461.277914475
 -33168.8562054476 141086.505232168 561599.879824948
 -49188.2567654894 142746.029055104 560003.648725053
 -72967.8419336011 145216.764827432 556765.467011566
 -107700.854018189 148458.206334753 550236.937160366
 -158105.717732563 152594.873783444 536765.671886053
 -229324.302329230 156771.721716469 509149.282265296
 0.000000000000000 -0.000000000000000 0.000000000000000
 0.000000000000000 -0.000000000000000 0.000000000000000
 0.000000000000000 0.000000000000000 0.000000000000000
 -0.000000000000000 -0.000000000000000 -0.000000000000000
 0.000000000000000 0.000000000000000 -0.000000000000000
 -0.000000000000000 0.000000000000000 0.000000000000000
 0.000000000000000 0.000000000000000 -0.000000000000000
 -0.000000000000000 0.000000000000000 0.000000000000000
 -0.000000000000000 0.000000000000000 0.000000000000000
 -0.000000000000000 0.000000000000000 0.000000000000000
 -0.000000000000000 -0.000000000000000 -0.000000000000000
 -0.000000000000000 0.000000000000000 0.000000000000000
 0.000000000000000 0.000000000000000 -0.000000000000000
 -0.000000000000000 0.000000000000000 0.000000000000000
 -0.000000000000000 0.000000000000000 0.000000000000000
 0.000000000000000 0.000000000000000 0.000000000000000
 0.000000000000000 -0.000000000000000 0.000000000000000
 0.000000000000000 0.000000000000000 -0.000000000000000
 0.000000000000000 0.000000000000000 -0.000000000000000
 -0.000000000000000 0.000000000000000 0.000000000000000
 0.000000000000000 0.000000000000000 -0.000000000000000
 0.000000000000000 -0.000000000000000 0.000000000000000
 0.000000000000000 -0.000000000000000 0.000000000000000
 -0.000000000000000 0.000000000000000 0.000000000000000
 0.000000000000000 0.000000000000000 -0.000000000000000
 232515.259512348 125008.505422270 516439.277811047
 160840.252708140 121626.716218040 543817.391236063
 110016.889268055 116538.656609010 557418.178382754
 74954.5489078463 111611.273983298 564202.746464288
 51040.5963465100 107510.139980327 567658.724345890
 34785.4145372190 104332.944409689 569477.490025970
 23743.5193276141 101970.299438023 570472.000471942
 16228.4210787462 100248.288330631 571040.207897894
 11111.4409999267 99014.5017165451 571377.864752152
 7614.52061891080 98130.8390761698 571587.576402733
 5228.10809305041 97507.1734625673 571721.101595095
 3589.42808082331 97059.4991724160 571809.906897784
 2470.73232472305 96747.2176713386 571868.753609282
 1697.79555189463 96518.7629666184 571910.172916742
 1171.75123935038 96363.0618947763 571937.747749959
 804.755685342692 96243.8566842693 571958.453402714
 557.306196081070 96167.2418395124 571971.634792132
 381.711609360973 96102.4602466324 571982.667071995
 265.723107492587 96066.4442017871 571988.782835516
 180.875071849317 96028.7319421760 571995.148515952
 126.982111917865 96014.1279897399 571997.614594601
 85.4859666274235 95989.7061703576 572001.721152548
 60.7735583327674 95986.8642198895 572002.201222869
 40.2886250237351 95968.6948086011 572005.251718514
 28.9992622682301 95972.7007001197 572004.580295795
 19.0309959678319 95957.1159912001 572007.195346765
 13.5217642839028 95965.3996959927 572005.805808255
 9.25281736312879 95950.4215614484 572008.318572874
 5.81033859235253 95961.5935758700 572006.444478225
 5.26342379677038 95946.2143901491 572009.024331343
 2.11094776161046 95959.7083155547 572006.760777823
 4.57074120923219 95943.8157012755 572009.426677383
 0.361500475915520 95959.8594161050 572006.735432994
 4.76825744204803 95943.9188414719 572009.409375934
 -2.98001327754415 95962.4800072248 572006.295788763
 0.975246300937548 95945.4817583629 572009.147242598
 -13.5011120649669 95963.3621427623 572006.147645265
 -11.0521680564160 95939.9735736998 572010.071020194
 -30.9448153334414 95949.6245626998 572008.451501108
 -22.8610378015913 95912.6680426643 572014.649800432
 -36.1759229271711 95909.8052666926 572015.129122480
 -5.08006877040409 95863.0533753769 572022.967171549
 5.11067306572605 95862.3509360798 572023.084889840
 70.9381995698735 95834.5807773065 572027.733676445
 100.769100309413 95876.0186378999 572020.785370369
 175.643972225890 95913.9802979909 572014.403256239
 169.537018568637 96038.9749689040 571993.432256107
 168.822658758581 96167.3244008521 571971.867504418
 15.0937122261369 96367.4238932140 571938.212907973
 -186.941456239539 96535.0301493811 571909.916863618
 -615.257914779976 96706.2272009013 571880.693045557
 -1125.14708810209 96758.6705614967 571871.046403996
 -1897.44647194000 96699.4830863527 571879.016635265
 -2725.57151924395 96407.2556125561 571925.005857541
 -3781.19749979487 95877.8796930400 572007.984849018
 -4781.99955292603 95025.6358436367 572142.692877212
 -5891.26873810682 93863.6616370461 572324.126677132
 -6754.87285919966 92387.0585846860 572554.803576676
 -7552.47585373144 90653.8407886598 572821.823308734
 -7892.11946683685 88776.7796626637 573111.156620641
 -8025.04378897680 86855.1629140974 573403.679223766
 -7580.74694175766 85111.0407546241 573671.197653735
 -6940.34898468465 83614.0366417817 573899.402711344
 -5792.18966648955 82624.7936749856 574055.392805462
 -4645.12278017579 82064.4083860285 574146.197157665
 -3210.84655119898 82160.4033509317 574142.280785553
 -2042.72344434724 82614.3856557785 574082.477143876
 -800.712581789847 83637.8539163462 573937.338262314
 8.55127279400628 84747.4509925030 573775.103570336
 802.759185838531 86232.1986251976 573553.278691661
 1153.08630187933 87503.2909776982 573360.135046074
 1510.14657836519 89002.8886705840 573128.436971682
 1511.19109631239 90083.3431985258 572959.603793887
 1574.28666223880 91350.3103607824 572758.799512058
 1393.42421614408 92103.5348768823 572638.627087046
 1307.79005093166 93078.6896099122 572481.132637299
 1075.41434810014 93518.5365696240 572409.928986086
 934.029055194410 94244.8011554285 572291.049244087
 720.344342108634 94447.9779129786 572257.861957508
 562.316278053847 94997.4404453531 572167.082336301
 386.515795580352 95047.8478259426 572158.856637906
 209.225278358754 95485.8250922417 572086.019258675
 49.3417509897515 95453.7303314365 572091.411341933
 -188.191109192966 95831.0314005077 572028.301751601
 -400.618285810602 95773.6825825308 572037.797028807
 -795.425485945194 96133.6644698361 571976.997661529
 -1208.79928731596 96106.1969863230 571980.889283120
 -1969.91303930767 96498.9225899051 571912.648384003
 -2899.95361694888 96571.4806843944 571896.441138991
 -4481.71662780502 97074.5770470718 571801.049935377
 -6611.87414928032 97358.6993926140 571732.076039829
 -10012.6575312628 98111.1999966704 571553.968689200
 -14838.0396767530 98804.4529729556 571329.600713342
 -22255.5190716356 100063.600203243 570869.484019962
 -33047.6725935342 101518.379413556 570089.352625881
 -49282.6338270029 103727.635435804 568517.193803293
 -73099.5666510513 106478.078362948 565436.886118656
 -108310.488355975 110136.859572494 559051.616825852
 -159391.964638526 114309.832813554 545827.320432762
 -231995.441980295 118205.374877524 518271.747493949
 -0.000000000000000 0.000000000000000 -0.000000000000000
 0.000000000000000 0.000000000000000 -0.000000000000000
 -0.000000000000000 0.000000000000000 0.000000000000000
 0.000000000000000 0.000000000000000 -0.000000000000000
 0.000000000000000 0.000000000000000 0.000000000000000
 -0.000000000000000 0.000000000000000 0.000000000000000
 0.000000000000000 0.000000000000000 0.000000000000000
 0.000000000000000 0.000000000000000 0.000000000000000
 -0.000000000000000 -0.000000000000000 0.000000000000000
 -0.000000000000000 -0.000000000000000 0.000000000000000
 -0.000000000000000 -0.000000000000000 -0.000000000000000
 0.000000000000000 0.000000000000000 0.000000000000000
 -0.000000000000000 -0.000000000000000 0.000000000000000
 0.000000000000000 0.000000000000000 -0.000000000000000
 0.000000000000000 0.000000000000000 0.000000000000000
 0.000000000000000 0.000000000000000 -0.000000000000000
 -0.000000000000000 -0.000000000000000 0.000000000000000
 0.000000000000000 -0.000000000000000 -0.000000000000000
 0.000000000000000 -0.000000000000000 -0.000000000000000
 0.000000000000000 0.000000000000000 -0.000000000000000
 0.000000000000000 -0.000000000000000 0.000000000000000
 0.000000000000000 -0.000000000000000 0.000000000000000
 -0.000000000000000 0.000000000000000 -0.000000000000000
 0.000000000000000 0.000000000000000 0.000000000000000
 -0.000000000000000 0.000000000000000 -0.000000000000000
 220451.459848083 102054.272463772 526674.547821270
 149586.717070740 97725.4618370494 551791.217930056
 100945.663201942 91370.2204272626 563792.032490522
 68211.3079754090 85351.3266369212 569615.983365636
 46246.3540541216 80427.8779069243 572531.773085206
 31471.3475454294 76668.9557459024 574048.278029390
 21483.0200077259 73895.0675490905 574872.158695534
 14708.4426702412 71892.9955459219 575339.081677623
 10088.5314232116 70457.3202607183 575616.180762322
 6936.59065384269 69441.0991918324 575786.260215656
 4771.60311310789 68715.0731256824 575895.364219111
 3291.01778728889 68206.5751785910 575966.172881994
 2266.73103362073 67838.9302027411 576014.532350851
 1567.56816477421 67585.5534412876 576046.643680947
 1079.15158264352 67396.3323678344 576069.934830161
 748.588802264567 67271.0551316953 576085.102008613
 513.842272891274 67170.4941221611 576097.093106278