# OOMMF OVF 2.0
#
# Segment count: 1
#
# Begin: Segment
# Begin: Header
#
# Title: Oxs_TimeDriver::Magnetization
# Desc: Oxs vector field output
# Desc:  MIF source file: C:/Users/Victor H. González/Documents/GitHub/Intro-to-magnetism-in-python/domain_wall_conversion_thin_film/drive-50/domain_wall_conversion_thin_film.mif
# Desc:  Iteration: 160, State id: 1177
# Desc:  Stage: 6, Stage iteration: 22
# Desc:  Stage simulation time: 4e-12 s
# Desc:  Total simulation time: 2.8e-11 s
# meshunit: m
# meshtype: rectangular
# xbase: 1.0000000000000001e-09
# ybase: 1.0000000000000001e-09
# zbase: 1.0000000000000001e-09
# xnodes: 125
# ynodes: 25
# znodes: 1
# xstepsize: 2.0000000000000001e-09
# ystepsize: 2.0000000000000001e-09
# zstepsize: 2.0000000000000001e-09
# xmin: 0
# ymin: 0
# zmin: 0
# xmax: 2.5000000000000004e-07
# ymax: 5.0000000000000004e-08
# zmax: 2.0000000000000001e-09
# valuedim: 3
# valuelabels: Magnetization_x Magnetization_y Magnetization_z
# valueunits: A/m A/m A/m
#
# End: Header
#
# Begin: Data Text
 0.000000000000000 -0.000000000000000 -0.000000000000000
 -0.000000000000000 0.000000000000000 0.000000000000000
 0.000000000000000 0.000000000000000 -0.000000000000000
 0.000000000000000 0.000000000000000 0.000000000000000
 0.000000000000000 0.000000000000000 0.000000000000000
 0.000000000000000 -0.000000000000000 0.000000000000000
 -0.000000000000000 -0.000000000000000 0.000000000000000
 -0.000000000000000 -0.000000000000000 -0.000000000000000
 -0.000000000000000 0.000000000000000 -0.000000000000000
 -0.000000000000000 -0.000000000000000 -0.000000000000000
 0.000000000000000 -0.000000000000000 -0.000000000000000
 0.000000000000000 0.000000000000000 0.000000000000000
 0.000000000000000 0.000000000000000 -0.000000000000000
 0.000000000000000 0.000000000000000 0.000000000000000
 0.000000000000000 0.000000000000000 -0.000000000000000
 -0.000000000000000 0.000000000000000 -0.000000000000000
 0.000000000000000 -0.000000000000000 -0.000000000000000
 -0.000000000000000 -0.000000000000000 0.000000000000000
 0.000000000000000 -0.000000000000000 -0.000000000000000
 -0.000000000000000 -0.000000000000000 -0.000000000000000
 0.000000000000000 -0.000000000000000 0.000000000000000
 0.000000000000000 -0.000000000000000 0.000000000000000
 0.000000000000000 0.000000000000000 -0.000000000000000
 -0.000000000000000 -0.000000000000000 0.000000000000000
 0.000000000000000 -0.000000000000000 0.000000000000000
 307896.678367300 171086.802765168 460791.646376077
 236562.189730547 177421.542533974 498958.842626076
 180301.657419766 186229.902204591 518854.253000353
 137360.881093995 196361.801758669 528179.923089822
 104837.855468977 206918.427096152 531595.512197686
 80093.3658190068 217194.264493458 531800.436463650
 61164.4290991383 226661.283284447 530361.740016023
 46582.5183512873 235034.704761623 528193.862650513
 35361.4416323895 242186.231389875 525828.296852545
 26699.4208024646 248138.060657552 523559.589523411
 20078.3966034411 252981.509544702 521533.521279618
 15000.4821659793 256851.432839667 519809.895041446
 11173.1615041519 259903.319193580 518387.331186018
 8262.33994247312 262270.763389959 517248.277338382
 6103.66290566125 264101.287535526 516346.061494819
 4471.11748207984 265487.801522485 515651.273974204
 3278.80830336425 266549.476051989 515112.246245922
 2377.38484613184 267336.210180488 514709.334253448
 1726.66032033806 267939.470697870 514398.151907920
 1231.55025638491 268376.699177354 514171.596475956
 875.296375972364 268717.670155130 513994.209697592
 600.709149565816 268959.685580658 513868.005115002
 400.718183769928 269156.283501037 513765.252305804
 244.326776251535 269294.634975775 513692.845850213
 126.917592531584 269415.583230703 513629.465085858
 35.2315333606648 269502.939976886 513583.648593444
 -35.8940783492911 269586.867811082 513539.598682931
 -88.4075578447009 269651.711303598 513505.546976023
 -128.758833452782 269718.279965620 513470.576443822
 -152.710726875444 269773.293114334 513441.668548319
 -167.838011753539 269829.587883214 513412.081405548
 -167.745631203684 269876.940397508 513387.191993610
 -160.719433140730 269922.042021483 513363.482729553
 -140.991905343801 269957.926855468 513344.618993110
 -117.016766700081 269987.367875794 513329.141481932
 -85.0057175902188 270006.680788211 513318.989619282
 -52.8282012439659 270016.925221187 513313.605219341
 -18.6590559487406 270017.486755480 513313.312215935
 11.1349657851935 270009.322700839 513317.606877697
 37.3367012862062 269994.236477302 513325.540836426
 55.8780191893515 269973.710176198 513336.334863747
 67.5998755164456 269950.817787027 513348.372361666
 71.0172456977752 269927.254449028 513360.762293107
 67.6607382954327 269905.989626829 513371.943317501
 58.1921680698169 269888.161229809 513381.317386662
 44.7336200348511 269875.531489104 513387.958080804
 29.0820600165168 269868.095069161 513391.868281896
 13.3204201151174 269866.017331774 513392.961104896
 -0.774180606204930 269868.181591054 513391.823624158
 -11.8615377341217 269873.578260164 513388.986652771
 -19.0110916216971 269880.622894585 513385.283217789
 -21.9841667645936 269888.045639770 513381.380980496
 -20.9313702815681 269894.648222626 513377.909948083
 -16.5732158970097 269899.751814220 513375.226998685
 -9.83225885016308 269903.087168677 513373.473642868
 -1.88637240676807 269904.881400735 513372.530422594
 6.13336334119332 269905.715256402 513372.091990120
 13.1428543068493 269906.379653417 513371.742550806
 18.2768497629175 269907.693543438 513371.051610838
 20.8735039659034 269910.300102153 513369.681090599
 20.5211308370276 269914.533771968 513367.455179567
 17.0153419653806 269920.305561141 513364.420617808
 10.3405226818867 269927.099679312 513360.848479691
 0.634279858778888 269934.009039127 513357.215556246
 -11.8283833196689 269939.859085165 513354.139300708
 -26.6341069482486 269943.347350988 513352.304476729
 -43.2201033738101 269943.212085593 513352.374476767
 -60.8538454647267 269938.374368653 513354.916544118
 -78.6267357277511 269928.056937829 513360.339231232
 -95.4661915101609 269911.853134948 513368.856109780
 -110.180650442285 269889.755758033 513380.470603521
 -121.539739570202 269862.145494643 513394.982111357
 -128.380719310378 269829.752820859 513412.006103309
 -129.744286248846 269793.605019371 513431.002041240
 -125.010276952987 269754.964778636 513451.305724025
 -114.053988399428 269715.272306736 513472.159786868
 -97.3866841702887 269676.084319330 513492.745870891
 -76.3389014882967 269639.022264189 513512.211972397
 -53.2549923257083 269605.713609417 513529.703476890
 -31.8104192585942 269577.746514648 513544.387148941
 -17.4342512764201 269556.616650289 513555.479102400
 -18.0193300669732 269543.699256795 513562.258997159
 -44.9416594585340 269540.218881800 513564.084010359
 -114.689876300117 269547.262961723 513560.376076733
 -251.240267711432 269565.803924512 513550.595591963
 -489.713418433972 269596.795417076 513534.154737162
 -881.736706888568 269641.313718889 513510.257420756
 -1503.53653261875 269700.859066925 513477.541861821
 -2467.84133865777 269777.844115056 513433.369176332
 -3941.62499585061 269876.505844595 513372.316341175
 -6172.16067115985 270004.424729888 513283.074978059
 -9525.39264347970 270175.110026353 513141.965558495
 -14541.6868761563 270412.035049747 512899.474208202
 -22016.0446632808 270754.569352153 512452.199675555
 -33110.2694657508 271265.404046498 511584.587945528
 -49501.9138149788 272037.074004919 509848.399914618
 -73557.6762316526 273189.903928379 506316.644659252
 -108460.492221749 274844.722823346 499095.882534783
 -158042.327969873 277049.497398450 484423.573498576
 -225611.085719565 279709.674799386 455260.514237795
 -0.000000000000000 -0.000000000000000 -0.000000000000000
 -0.000000000000000 -0.000000000000000 -0.000000000000000
 0.000000000000000 0.000000000000000 -0.000000000000000
 0.000000000000000 -0.000000000000000 0.000000000000000
 -0.000000000000000 -0.000000000000000 -0.000000000000000
 -0.000000000000000 -0.000000000000000 -0.000000000000000
 0.000000000000000 0.000000000000000 0.000000000000000
 0.000000000000000 0.000000000000000 -0.000000000000000
 0.000000000000000 0.000000000000000 -0.000000000000000
 0.000000000000000 0.000000000000000 -0.000000000000000
 -0.000000000000000 0.000000000000000 0.000000000000000
 -0.000000000000000 -0.000000000000000 0.000000000000000
 0.000000000000000 -0.000000000000000 -0.000000000000000
 -0.000000000000000 -0.000000000000000 -0.000000000000000
 -0.000000000000000 0.000000000000000 0.000000000000000
 -0.000000000000000 0.000000000000000 0.000000000000000
 -0.000000000000000 -0.000000000000000 -0.000000000000000
 0.000000000000000 0.000000000000000 -0.000000000000000
 0.000000000000000 -0.000000000000000 0.000000000000000
 -0.000000000000000 -0.000000000000000 -0.000000000000000
 -0.000000000000000 0.000000000000000 0.000000000000000
 0.000000000000000 -0.000000000000000 -0.000000000000000
 0.000000000000000 0.000000000000000 -0.000000000000000
 0.000000000000000 -0.000000000000000 0.000000000000000
 -0.000000000000000 0.000000000000000 0.000000000000000
 315196.042740550 85124.1216842894 479380.160778662
 243359.640246389 91393.0511798955 518481.818095078
 187112.754430996 100855.015054676 539645.330812346
 143965.278541237 112311.293124685 550509.011743864
 110844.566749332 124497.064738824 555530.343809922
 85306.7821772169 136320.305061925 557260.735511118
 65430.9379359556 147136.040756812 557198.149558333
 50008.8699259387 156546.447871090 556230.458162509
 37958.9003086403 164482.579369799 554891.523607287
 28699.2879245364 170978.717786047 553482.275178586
 21505.2238986940 176192.619258603 552171.790536115
 16086.2163792951 180312.928356642 551024.937285102
 11902.9242298741 183506.613377346 550076.034054889
 8828.08933322649 185985.263525150 549300.961759767
 6457.07235364343 187848.627358297 548699.552957922
 4760.09869183805 189291.198818726 548220.925822987
 3442.17492822943 190338.951605082 547867.899163331
 2523.98556896195 191163.719105368 547585.666352445
 1799.48227327236 191735.558905702 547388.561548984
 1305.90478827998 192205.925449097 547224.978262999
 908.028411399297 192511.340212793 547118.414398454
 638.682039982725 192784.351500058 547022.655748328
 417.958508254562 192947.483236899 546965.349929254
 264.451912412748 193113.820399957 546906.740163000
 140.051989632140 193206.313250262 546874.117970198
 47.3025133396055 193317.154704935 546834.961811387
 -22.2827884599028 193378.788200895 546813.170815619
 -79.3609841658121 193461.673501417 546783.846312111
 -113.770594441338 193512.149581650 546765.978294683
 -144.654323585949 193579.680563840 546742.065646981
 -152.637871935266 193625.415133544 546725.868526488
 -160.655147233524 193680.439912625 546706.375840977
 -147.429136665640 193719.458049848 546692.555132702
 -135.936333795325 193759.313031112 546678.433939939
 -107.703876091993 193785.965836095 546668.992942573
 -83.1410339212615 193806.807841599 546661.608604279
 -48.6178556422924 193816.431136494 546658.200942616
 -20.3562948593747 193817.168880191 546657.941159633
 10.5634859690717 193809.580714691 546660.631755761
 32.8858190195980 193794.074506241 546666.128093550
 52.1801211095422 193774.567817327 546673.041355107
 62.1257449006510 193751.075355390 546681.366921374
 66.4877575159188 193728.470146457 546689.377465935
 63.0655428753079 193706.596516508 546697.128663329
 54.8221269034714 193689.408305668 546703.219402203
 42.2721203129931 193676.211177884 546707.895897661
 27.8371729313330 193669.048624765 546710.434169561
 13.1533515399874 193666.462489403 546711.350836829
 -0.119729478285432 193668.618448102 546710.587265684
 -10.5383103520954 193673.586188741 546708.827349382
 -17.4689914550539 193680.474891106 546706.386775195
 -20.3655138782735 193687.573538934 546703.871800672
 -19.6050468846939 193693.999658961 546701.595124577
 -15.5821577523333 193698.909755186 546699.855603464
 -9.33104815174049 193702.145313121 546698.709358295
 -1.78084979829517 193703.902594059 546698.086805378
 5.89081989308025 193704.780546946 546697.775702954
 12.7340244890869 193705.588076509 546697.489463578
 17.8443014740650 193707.127778817 546696.943771650
 20.5885269224701 193710.064572678 546695.903093632
 20.5005529991663 193714.702780654 546694.259624454
 17.3412241085498 193720.957421507 546692.043434854
 11.0378336156973 193728.271445886 546689.451810400
 1.67979183098732 193735.717084075 546686.813379559
 -10.4955594668371 193742.067251497 546684.562857741
 -25.1042932103979 193745.978664389 546683.176182652
 -41.5948082104109 193746.132306044 546683.120725636
 -59.2411319960267 193741.402956347 546684.795170850
 -77.1311856947492 193730.966510802 546688.491433258
 -94.1886831691999 193714.384996462 546694.364498057
 -109.219719741250 193691.633385739 546702.422920749
 -120.989194092861 193663.094544364 546712.530653098
 -128.337562178432 193629.523960726 546724.419593833
 -130.295211631753 193591.994326473 546737.709286506
 -126.242029314123 193551.840932414 546751.926319994
 -116.023823026545 193510.593788733 546766.528447019
 -100.135779854764 193469.930227720 546780.921458043
 -79.8457337329286 193431.608377511 546794.482877386
 -57.4531036712686 193397.434644120 546806.573636614
 -36.5209788108879 193369.202979998 546816.559739277
 -22.3821366873281 193348.688687677 546823.814479395
 -22.7307404222911 193337.610894947 546827.731279923
 -48.7373848286366 193337.682230875 546827.704358750
 -116.515417322624 193350.631203515 546823.115675773
 -249.589129907909 193378.357676816 546813.266561340
 -482.322245223187 193423.082023345 546797.292152989
 -865.339032881804 193487.710233924 546773.954369436
 -1473.28083860950 193576.283619843 546741.302503753
 -2416.66667593955 193694.851480997 546695.952273228
 -3859.11210702174 193852.733353409 546631.708763000
 -6043.13141632523 194064.739952872 546536.693433945
 -9327.70928306274 194354.580694529 546387.491440447
 -14243.5984644425 194760.382276294 546136.899868865
 -21572.8963340303 195342.784224193 545688.378834753
 -32462.2945267872 196196.174021903 544842.418257998
 -48577.3099477377 197461.159489808 543184.439625420
 -72296.0534740113 199330.612004596 539852.375904706
 -106901.712564311 202023.647971825 533065.164413296
 -156619.576057219 205655.227338502 519207.314917660
 -226061.182017566 209801.365931072 491202.329837998
 -0.000000000000000 0.000000000000000 -0.000000000000000
 -0.000000000000000 -0.000000000000000 0.000000000000000
 -0.000000000000000 -0.000000000000000 -0.000000000000000
 0.000000000000000 0.000000000000000 0.000000000000000
 0.000000000000000 -0.000000000000000 -0.000000000000000
 -0.000000000000000 0.000000000000000 0.000000000000000
 0.000000000000000 0.000000000000000 -0.000000000000000
 -0.000000000000000 0.000000000000000 0.000000000000000
 0.000000000000000 0.000000000000000 0.000000000000000
 0.000000000000000 -0.000000000000000 -0.000000000000000
 -0.000000000000000 0.000000000000000 0.000000000000000
 -0.000000000000000 0.000000000000000 0.000000000000000
 -0.000000000000000 0.000000000000000 -0.000000000000000
 -0.000000000000000 -0.000000000000000 0.000000000000000
 -0.000000000000000 0.000000000000000 0.000000000000000
 0.000000000000000 0.000000000000000 -0.000000000000000
 -0.000000000000000 0.000000000000000 -0.000000000000000
 -0.000000000000000 0.000000000000000 0.000000000000000
 0.000000000000000 -0.000000000000000 0.000000000000000
 0.000000000000000 0.000000000000000 -0.000000000000000
 -0.000000000000000 -0.000000000000000 0.000000000000000
 -0.000000000000000 0.000000000000000 -0.000000000000000
 -0.000000000000000 -0.000000000000000 -0.000000000000000
 -0.000000000000000 0.000000000000000 -0.000000000000000
 0.000000000000000 -0.000000000000000 0.000000000000000
 333770.565256970 -1743.50542564951 474335.503580402
 262763.570749446 8313.35904436501 516997.286209899
 206247.930258877 22582.8353384917 541619.614500808
 161680.486747787 39094.3971050118 555635.715482720
 126412.861738029 55847.3637814429 563294.647893858
 98267.7689151354 71501.8427259745 567125.146752665
 75903.4899188801 85194.2836013489 568665.626057869
 58078.2793432304 96706.1727424486 568924.274066450
 44155.6189040458 106027.013750232 568514.339022692
 33205.4035452483 113422.099429425 567831.690324183
 24888.0424116063 119172.805210119 567078.855048633
 18423.6264264858 123572.526434368 566383.616200120
 13664.2183402999 126934.574756331 565774.604298017
 9977.44265754210 129429.162977695 565286.248204313
 7351.74140220444 131339.658460566 564885.692874069
 5301.16788438355 132704.668205142 564589.557692688
 3892.00305642252 133778.669611721 564347.516933606
 2769.08291897358 134502.215200266 564182.139283060
 2024.75904105745 135109.160652351 564040.260139862
 1414.17172614696 135480.536021101 563953.033929036
 1020.15155965392 135831.651421065 563869.419070605
 688.144793102952 136016.987157072 563825.243902272
 473.078499219848 136229.723775860 563774.102417526
 291.941413553661 136322.798797093 563751.726647766
 167.083282792600 136461.568725045 563718.202956296
 69.0722705273554 136514.273147965 563705.462503163
 -8.10899256994951 136613.824607432 563681.348689464
 -57.4342915257747 136653.078723204 563671.830746199
 -104.735463501126 136730.897124080 563652.952446917
 -122.055677572856 136767.790471589 563643.998098029
 -145.663384076003 136830.585691945 563628.751574454
 -139.516373017006 136865.941739905 563620.168665770
 -142.319023396475 136913.785154281 563608.547823774
 -119.180427281765 136942.737829780 563601.519117638
 -105.563902521827 136972.814123707 563594.213106642
 -72.9927842002939 136989.337286280 563590.202311857
 -50.3733362165254 136999.669311030 563587.693328373
 -17.3170438841502 137000.572642103 563587.475726578
 5.18447496782171 136992.861682359 563589.350344024
 30.3007781386551 136980.029046817 563592.468654609
 44.8287049478591 136960.431292778 563597.230520594
 56.7757687398739 136940.384640689 563602.100626827
 59.5304655734074 136917.777872895 563607.592708325
 57.9874514860455 136898.826293755 563612.196458565
 50.2605311608787 136881.432077045 563616.421892067
 39.4942014392241 136869.949261051 563619.211373677
 26.4459270580744 136862.156518945 563621.104478529
 13.0995775208125 136860.024318197 563621.622697376
 1.02781093869391 136861.184600151 563621.341104812
 -8.82105432037862 136865.749580523 563620.232527143
 -15.2794212626822 136871.564912805 563618.820201081
 -18.3785468540200 136877.969638903 563617.264719384
 -17.8426515321694 136883.568994985 563615.904868586
 -14.4552186966213 136887.945610018 563614.842013334
 -8.71346656457151 136890.783107550 563614.152966617
 -1.75006623817436 136892.362921320 563613.769323244
 5.59145972334767 136893.253184320 563613.553067480
 12.2478939879474 136894.202285751 563613.322438830
 17.4475124529454 136896.017286252 563612.881459204
 20.4600171904947 136899.276570232 563612.089699942
 20.8088470838146 136904.303823020 563610.868562456
 18.1576597226886 136910.956422488 563609.252658062
 12.3625769825478 136918.706952893 563607.370013482
 3.43781302241919 136926.602893786 563605.451897113
 -8.44210037609276 136933.443069588 563603.789995985
 -22.9262222961505 136937.869392179 563602.714153080
 -39.4871051822225 136938.567307953 563602.543663896
 -57.3943739511320 136934.386277409 563603.557973791
 -75.7276869358553 136924.481213059 563605.962273158
 -93.3917109525256 136908.379400484 563609.871212279
 -109.170091324574 136886.025831262 563615.297888563
 -121.812575803303 136857.779808757 563622.154698974
 -130.130103930171 136824.384133380 563630.260873808
 -133.143921048173 136786.923464357 563639.352637706
 -130.189611565074 136746.759251845 563649.099072093
 -121.101698537814 136705.487051679 563659.112535530
 -106.304826040470 136664.865333762 563668.966045309
 -87.0465244321767 136626.792030865 563678.199083712
 -65.5218364741105 136593.239402345 563686.333572549
 -45.2592259791122 136566.265483825 563692.871236992
 -31.4423391257770 136547.972967561 563697.303603476
 -31.6984677998015 136540.587755911 563699.092504572
 -56.9714934833806 136546.482139705 563697.662732000
 -123.223267085939 136568.378070743 563692.347763524
 -253.594689128830 136609.505230195 563682.338529862
 -482.097295927321 136674.026333901 563666.548686258
 -858.652629040818 136767.467270684 563643.435703836
 -1457.11963477374 136897.571595767 563610.620635871
 -2386.68660084931 137075.328790263 563564.244753081
 -3809.34838158260 137316.761212202 563497.645030659
 -5965.17907034899 137645.327001778 563398.775818010
 -9210.24292268901 138095.756072761 563244.825613159
 -14071.6652106863 138719.323756695 562991.063387940
 -21328.5861857176 139591.324894317 562547.201064558
 -32128.0628489588 140819.832982033 561727.302359860
 -48148.1615424015 142552.975735427 560143.199234858
 -71813.1800432336 144973.326050857 556978.995928778
 -106539.135206320 148247.687554411 550519.786932549
 -156882.586245841 152346.345585933 537194.978680393
 -228145.289993421 156520.557872087 509755.864720778
 0.000000000000000 -0.000000000000000 0.000000000000000
 0.000000000000000 -0.000000000000000 0.000000000000000
 0.000000000000000 0.000000000000000 0.000000000000000
 -0.000000000000000 -0.000000000000000 -0.000000000000000
 0.000000000000000 0.000000000000000 -0.000000000000000
 -0.000000000000000 0.000000000000000 0.000000000000000
 0.000000000000000 0.000000000000000 -0.000000000000000
 -0.000000000000000 0.000000000000000 0.000000000000000
 -0.000000000000000 0.000000000000000 0.000000000000000
 -0.000000000000000 0.000000000000000 0.000000000000000
 -0.000000000000000 -0.000000000000000 -0.000000000000000
 -0.000000000000000 0.000000000000000 0.000000000000000
 0.000000000000000 0.000000000000000 -0.000000000000000
 -0.000000000000000 0.000000000000000 0.000000000000000
 -0.000000000000000 0.000000000000000 0.000000000000000
 0.000000000000000 0.000000000000000 0.000000000000000
 0.000000000000000 -0.000000000000000 0.000000000000000
 0.000000000000000 0.000000000000000 -0.000000000000000
 0.000000000000000 0.000000000000000 -0.000000000000000
 -0.000000000000000 0.000000000000000 0.000000000000000
 0.000000000000000 0.000000000000000 -0.000000000000000
 0.000000000000000 -0.000000000000000 0.000000000000000
 0.000000000000000 -0.000000000000000 0.000000000000000
 -0.000000000000000 0.000000000000000 0.000000000000000
 0.000000000000000 0.000000000000000 -0.000000000000000
 364097.155467188 -94642.6815544922 441447.646056560
 296842.874022270 -77999.2170398741 492138.629131432
 240368.187028904 -54829.8740179351 524992.209065635
 193138.700452547 -29227.9952936671 546116.440586268
 153511.152130136 -4328.62972749017 559299.194650198
 120554.832918880 17787.7699358034 567053.901759447
 93362.7050804592 36342.9521163467 571281.537537779
 71500.6274965172 51167.7683485644 573297.060649915
 54019.7507008265 62703.0003298561 574064.630754982
 40533.6236029127 71443.7494505486 574154.000266535
 30013.9608418422 77973.8677433844 573950.553709744
 22204.4874094704 82815.3079017595 573627.566907327
 16181.2664764735 86330.6878262193 573310.717634573
 11870.9525575093 88943.0420098186 573016.767436536
 8534.97166176133 90775.7723428496 572788.716207200
 6237.69712251022 92180.8825746293 572593.901488978
 4426.82513500603 93109.1031965525 572460.564686475
 3230.65286970885 93876.9719531852 572343.146214696
 2257.95881700682 94330.2889735863 572273.272313272
 1640.60676608969 94764.9806751255 572203.553682675
 1120.50359848049 94975.3909848915 572169.921945354
 797.255000602183 95235.4701201217 572127.232017025
 520.053906315523 95327.5951141098 572112.208534039
 342.392542597377 95495.0717453495 572084.411638438
 196.404170253544 95535.6887552179 572077.698918135
 91.0627410095541 95653.0057757706 572058.121342261
 17.9820388583669 95676.8900367144 572054.134142521
 -48.0460713880885 95765.6823906771 572039.274672485
 -77.8961974037678 95788.7133314947 572035.415276432
 -117.455470314424 95858.8889449518 572023.653020093
 -119.162368594806 95885.0348948322 572019.270552616
 -136.850296035505 95939.4191807969 572010.147741496
 -119.276053758619 95965.4233012077 572005.789571962
 -118.451018424537 96002.9963267001 571999.484847366
 -89.0609075935665 96022.5859424948 571996.201960355
 -75.1778500847001 96041.5834290717 571993.014468470
 -41.9862024287854 96049.4516149701 571991.696689403
 -22.8263243119732 96050.1864665251 571991.574377372
 6.08854508050701 96044.9457622639 571992.454807276
 22.4058604494612 96031.4150665180 571994.726215461
 40.8307640509861 96016.4919606989 571997.230416730
 48.5715564721124 95995.9532994630 572000.677089575
 54.0667306871240 95978.0613855516 572003.679017417
 51.7301002452965 95958.6815940925 572006.930684166
 46.2284213632496 95944.6752671476 572009.280650947
 36.5392943635233 95932.4565372307 572011.330698626
 25.1948351413993 95926.2563245325 572012.371118650
 13.3401122816732 95922.9425182191 572012.927232146
 2.19023452864526 95924.1921481067 572012.717827092
 -6.71508984412196 95927.3416494780 572012.189624463
 -13.1364445245352 95932.4470207714 572011.333310837
 -16.1235560585830 95937.5943811181 572010.469942985
 -16.1919445031541 95942.3933542374 572009.665036598
 -13.2402883311349 95945.9827250407 572009.063060736
 -8.25090200290347 95948.3564378967 572008.664994499
 -1.74760817754761 95949.6907479310 572008.441233451
 5.16790743383933 95950.5315854561 572008.300168592
 11.7450963622511 95951.6292024341 572008.115952433
 17.0558460078374 95953.6660117860 572007.774149964
 20.4493066918558 95957.2541253429 572007.172125097
 21.3221756936437 95962.6131592547 572006.273060893
 19.2853680447801 95969.6535413864 572005.091959173
 14.0901404442710 95977.8016510816 572003.724980610
 5.66444100771973 95986.1655726549 572002.321661873
 -5.88084355954683 95993.5354897274 572001.084884984
 -20.2519912140733 95998.5958013051 572000.235309422
 -36.9370084873272 96000.0220026156 571999.995114646
 -55.2178283113322 95996.6666383042 572000.556770119
 -74.1578840296854 95987.6521733470 572002.067418342
 -92.6424997828055 95972.4727901844 572004.611768038
 -109.431358511832 95951.0289472556 572008.206294927
 -123.237334688617 95923.6377171975 572012.797531366
 -132.852169123504 95891.0152492474 572018.265044719
 -137.242965205149 95854.2279986125 572024.429669886
 -135.729930030930 95814.6586087365 572031.059273076
 -128.068368849290 95773.9347811151 572037.880751822
 -114.668644425076 95733.9098411079 572044.583365350
 -96.6703094492880 95696.5921319149 572050.830704046
 -76.2588834010986 95664.1631782175 572056.257782392
 -56.8288226261756 95638.9281716695 572060.479485045
 -43.5644852656210 95623.4047774799 572063.075683877
 -43.9337413489760 95620.3340399549 572063.588937379
 -68.8887076289476 95632.8990874914 572061.486089098
 -134.197805124425 95664.8670772987 572056.129412168
 -263.004900970482 95721.0326720601 572046.689294342
 -489.082634178980 95807.6096123994 572032.046950636
 -862.343959818683 95933.0586231632 572010.580869008
 -1456.38211686698 96108.9487612470 571979.850098880
 -2380.42725778140 96351.4728105855 571935.946809869
 -3796.35180944076 96683.2044658394 571872.315895039
 -5944.69702443541 97135.8536597362 571777.304998267
 -9182.37528855048 97753.5982369590 571629.178765208
 -14039.1437448616 98597.6921750015 571385.506939645
 -21299.6409437635 99751.4299611813 570960.574397538
 -32123.3717983961 101324.597620653 570176.652364260
 -48214.3078198976 103452.246125404 568658.960443830
 -72050.2446927903 106275.830694903 565609.591546870
 -107150.459699034 109874.468454569 559326.720413134
 -158247.962504431 114070.032955643 546210.225045903
 -230852.781410951 117934.678753678 518843.333639447
 -0.000000000000000 0.000000000000000 -0.000000000000000
 0.000000000000000 0.000000000000000 -0.000000000000000
 -0.000000000000000 0.000000000000000 0.000000000000000
 0.000000000000000 0.000000000000000 -0.000000000000000
 0.000000000000000 0.000000000000000 0.000000000000000
 -0.000000000000000 0.000000000000000 0.000000000000000
 0.000000000000000 0.000000000000000 0.000000000000000
 0.000000000000000 0.000000000000000 0.000000000000000
 -0.000000000000000 -0.000000000000000 0.000000000000000
 -0.000000000000000 -0.000000000000000 0.000000000000000
 -0.000000000000000 -0.000000000000000 -0.000000000000000
 0.000000000000000 0.000000000000000 0.000000000000000
 -0.000000000000000 -0.000000000000000 0.000000000000000
 0.000000000000000 0.000000000000000 -0.000000000000000
 0.000000000000000 0.000000000000000 0.000000000000000
 0.000000000000000 0.000000000000000 -0.000000000000000
 -0.000000000000000 -0.000000000000000 0.000000000000000
 0.000000000000000 -0.000000000000000 -0.000000000000000
 0.000000000000000 -0.000000000000000 -0.000000000000000
 0.000000000000000 0.000000000000000 -0.000000000000000
 0.000000000000000 -0.000000000000000 0.000000000000000
 0.000000000000000 -0.000000000000000 0.000000000000000
 -0.000000000000000 0.000000000000000 -0.000000000000000
 0.000000000000000 0.000000000000000 0.000000000000000
 -0.000000000000000 0.000000000000000 -0.000000000000000
 404310.312755917 -196067.060236893 366729.980897766
 346537.314117708 -170748.310176443 432616.347929634
 292055.732052164 -135170.323713022 482527.131841093
 241122.935959487 -96454.1010787689 518610.003894414
 194713.911381444 -59939.3764602794 543041.217463364
 153761.612203774 -28492.6533940354 558520.845909142
 119133.959631706 -3231.55295194983 567623.692888158
 90631.6714413672 16215.2566662773 572645.584618436
 68121.9840862973 30642.9896606282 575169.890092315
 50459.2313389234 41150.2605210707 576333.689828846
 37196.9962148024 48680.9162449938 576755.192318321
 27038.8608833124 54000.6199087550 576847.322132645
 19710.8034832489 57795.8248453979 576776.496449435
 14124.3705988901 60399.0812518032 576673.610579783
 10243.9727370866 62307.2459645102 576552.571863902
 7248.93729011562 63547.6917247312 576462.612651178
 5252.01939394896 64529.6695849685 576375.171251799