# OOMMF OVF 2.0
#
# Segment count: 1
#
# Begin: Segment
# Begin: Header
#
# Title: Oxs_TimeDriver::Magnetization
# Desc: Oxs vector field output
# Desc:  MIF source file: C:/Users/Victor H. González/Documents/GitHub/Intro-to-magnetism-in-python/domain_wall_conversion_thin_film/drive-44/domain_wall_conversion_thin_film.mif
# Desc:  Iteration: 841, State id: 5923
# Desc:  Stage: 69, Stage iteration: 11
# Desc:  Stage simulation time: 2e-12 s
# Desc:  Total simulation time: 1.4e-10 s
# meshunit: m
# meshtype: rectangular
# xbase: 1.0000000000000001e-09
# ybase: 1.0000000000000001e-09
# zbase: 1.0000000000000001e-09
# xnodes: 75
# ynodes: 25
# znodes: 1
# xstepsize: 2.0000000000000001e-09
# ystepsize: 2.0000000000000001e-09
# zstepsize: 2.0000000000000001e-09
# xmin: 0
# ymin: 0
# zmin: 0
# xmax: 1.5000000000000002e-07
# ymax: 5.0000000000000004e-08
# zmax: 2.0000000000000001e-09
# valuedim: 3
# valuelabels: Magnetization_x Magnetization_y Magnetization_z
# valueunits: A/m A/m A/m
#
# End: Header
#
# Begin: Data Text
 0.000000000000000 -0.000000000000000 -0.000000000000000
 -0.000000000000000 0.000000000000000 0.000000000000000
 0.000000000000000 0.000000000000000 -0.000000000000000
 0.000000000000000 0.000000000000000 0.000000000000000
 0.000000000000000 0.000000000000000 0.000000000000000
 0.000000000000000 -0.000000000000000 0.000000000000000
 -0.000000000000000 -0.000000000000000 0.000000000000000
 -0.000000000000000 -0.000000000000000 -0.000000000000000
 -0.000000000000000 0.000000000000000 -0.000000000000000
 -0.000000000000000 -0.000000000000000 -0.000000000000000
 0.000000000000000 -0.000000000000000 -0.000000000000000
 0.000000000000000 0.000000000000000 0.000000000000000
 0.000000000000000 0.000000000000000 -0.000000000000000
 0.000000000000000 0.000000000000000 0.000000000000000
 0.000000000000000 0.000000000000000 -0.000000000000000
 -0.000000000000000 0.000000000000000 -0.000000000000000
 0.000000000000000 -0.000000000000000 -0.000000000000000
 -0.000000000000000 -0.000000000000000 0.000000000000000
 0.000000000000000 -0.000000000000000 -0.000000000000000
 -0.000000000000000 -0.000000000000000 -0.000000000000000
 0.000000000000000 -0.000000000000000 0.000000000000000
 0.000000000000000 -0.000000000000000 0.000000000000000
 0.000000000000000 0.000000000000000 -0.000000000000000
 -0.000000000000000 -0.000000000000000 0.000000000000000
 0.000000000000000 -0.000000000000000 0.000000000000000
 242335.696660886 275494.843325616 449194.836819033
 174216.690222414 274153.948734589 480508.228068136
 122292.759544439 271706.459707592 497614.389579092
 84470.5628238660 268563.574530263 507088.089439840
 57568.8215100200 264911.046252772 512745.520081072
 38667.8212868263 260723.151798906 516650.982494928
 25475.7974164234 255864.114026229 519888.967857147
 16330.6842320298 250166.011806152 523020.339269438
 10102.5701856093 243483.105676176 526321.114269539
 6082.82967090192 235742.471246602 529894.788079426
 3887.74750535255 226997.420060511 533720.017148698
 3363.36604286477 217487.965227259 537668.738862665
 4484.29092153657 207689.239289621 541521.071629008
 7228.60190072756 198327.811823812 544989.748868490
 11448.4821240810 190320.353485456 547765.547753988
 16761.4465808990 184628.983547428 549573.645968181
 22532.9213253904 182031.366052659 550233.449755234
 27957.2130202101 182914.286196404 549691.511800394
 32256.9869790953 187138.564638208 548031.608957168
 34854.2871846157 194100.253391430 545445.020417489
 35534.9709101874 202877.154312846 542197.497320242
 34395.1824939666 212492.669852856 538575.748321452
 31836.2308370857 222071.401499722 534855.818928837
 28311.7433168253 230990.747338276 531264.265535022
 24359.4981608397 238864.180406873 527968.292767572
 20325.6685927376 245540.330720116 525068.389056239
 16567.1222621242 251018.060173616 522604.500484474
 13174.5990474009 255394.321157897 520576.767307414
 10309.6752822044 258824.736270385 518944.569766503
 7880.31460815075 261456.922379477 517666.087725986
 5947.90149315234 263467.244970831 516671.688110842
 4340.86505089617 264965.942071255 515920.736579663
 3093.62142689736 266104.609013853 515343.348233050
 2015.08418169677 266936.860040470 514918.102408020
 1138.35760051332 267586.531231480 514583.474710836
 268.850535711297 268058.102348983 514339.169696856
 -572.281001777279 268456.971449314 514130.846161478
 -1599.46830582508 268752.344302944 513974.337037182
 -2843.75787949256 269041.069934052 513817.881870477
 -4589.79134943000 269271.352010212 513684.604404260
 -7003.24977100481 269540.281040228 513516.300996764
 -10548.8611947222 269791.464061615 513323.764740135
 -15693.2278190117 270134.005577907 513012.028739148
 -23311.8792010248 270531.965565959 512512.450478167
 -34505.9999189204 271127.341709708 511565.538857948
 -51013.8447561860 271940.183597182 509751.041380322
 -75155.0567310199 273157.812359700 506099.325226403
 -110144.612288496 274840.193893120 498729.417825548
 -159765.380703661 277080.367125993 483840.359294198
 -227295.267514441 279746.828331301 454399.134466733
 -0.000000000000000 -0.000000000000000 -0.000000000000000
 -0.000000000000000 -0.000000000000000 -0.000000000000000
 0.000000000000000 0.000000000000000 -0.000000000000000
 0.000000000000000 -0.000000000000000 0.000000000000000
 -0.000000000000000 -0.000000000000000 -0.000000000000000
 -0.000000000000000 -0.000000000000000 -0.000000000000000
 0.000000000000000 0.000000000000000 0.000000000000000
 0.000000000000000 0.000000000000000 -0.000000000000000
 0.000000000000000 0.000000000000000 -0.000000000000000
 0.000000000000000 0.000000000000000 -0.000000000000000
 -0.000000000000000 0.000000000000000 0.000000000000000
 -0.000000000000000 -0.000000000000000 0.000000000000000
 0.000000000000000 -0.000000000000000 -0.000000000000000
 -0.000000000000000 -0.000000000000000 -0.000000000000000
 -0.000000000000000 0.000000000000000 0.000000000000000
 -0.000000000000000 0.000000000000000 0.000000000000000
 -0.000000000000000 -0.000000000000000 -0.000000000000000
 0.000000000000000 0.000000000000000 -0.000000000000000
 0.000000000000000 -0.000000000000000 0.000000000000000
 -0.000000000000000 -0.000000000000000 -0.000000000000000
 -0.000000000000000 0.000000000000000 0.000000000000000
 0.000000000000000 -0.000000000000000 -0.000000000000000
 0.000000000000000 0.000000000000000 -0.000000000000000
 0.000000000000000 -0.000000000000000 0.000000000000000
 -0.000000000000000 0.000000000000000 0.000000000000000
 240131.643347379 207140.687201387 485622.826449729
 170233.776675599 204053.071857773 515541.273948234
 118360.641350907 199774.388947845 531489.371577191
 81067.0327617955 195173.140025476 540125.523940309
 54683.5681705330 190394.343732369 545123.565117909
 36127.8291989774 185285.909794736 548419.466821617
 23065.1518551629 179587.556613333 551013.891185650
 13840.5659172237 173015.729847965 553420.270644532
 7351.82683821892 165318.120467852 555891.958645849
 2943.71353699372 156320.826476688 558529.438579792
 313.909809425169 145996.678657892 561324.212270854
 -565.245996533756 134544.444099860 564178.582594929
 441.763885621224 122481.863925152 566919.745514380
 3489.72336390268 110690.172418761 569328.997646132
 8552.80465469857 100380.816899846 571183.456632856
 15257.4986821993 92884.3466031383 572310.848132438
 22797.9253160411 89345.1473048147 572623.523140960
 30082.7067861428 90335.5080895925 572131.564179616
 35973.0969656871 95707.5512737761 570916.807358021
 39673.4250157534 104579.937776628 569112.516082853
 40812.6844502506 115701.835138416 566875.127460685
 39625.1935476740 127695.938977042 564378.942914316
 36550.1534661118 139463.968521455 561795.236510465
 32373.6327275122 150194.279772838 559279.559994412
 27595.0181249101 159497.740938361 556955.101969850
 22902.9508743806 167224.681025265 554897.612985714
 18434.3524276720 173447.436192004 553151.119974454
 14618.0503585801 178342.139214870 551706.800741098
 11259.9527050046 182095.694934537 550558.236112575
 8636.60613875238 184967.217996173 549647.648317684
 6382.43885979787 187085.100050763 548961.227968968
 4734.72714371568 188704.615005604 548423.331591994
 3271.37059666024 189851.561666622 548038.030311003
 2237.41161425766 190767.400531605 547725.107041555
 1204.88416757848 191383.421077618 547513.410238297
 422.400277434492 191938.647201774 547320.178038740
 -536.631686323171 192291.402048896 547196.243339173
 -1455.82628529450 192689.572051130 547054.484848245
 -2785.16682006541 192941.471513725 546960.539176185
 -4407.28563411958 193310.612683296 546819.515797807
 -6863.16495032403 193579.857141141 546698.944462197
 -10257.3158872651 194033.617057730 546484.897249944
 -15373.4396777843 194462.355024564 546212.458509300
 -22778.8461017830 195183.340970873 545696.424376887
 -33822.2401256085 196047.978298729 544813.037911050
 -50002.8630933125 197431.766737834 543065.752156448
 -73841.9663307245 199313.879550289 539649.276314742
 -108504.183321031 202100.171764552 532712.270155827
 -158279.791760046 205750.101344232 518665.984345643
 -227680.444454104 209942.047303727 490393.670419084
 -0.000000000000000 0.000000000000000 -0.000000000000000
 -0.000000000000000 -0.000000000000000 0.000000000000000
 -0.000000000000000 -0.000000000000000 -0.000000000000000
 0.000000000000000 0.000000000000000 0.000000000000000
 0.000000000000000 -0.000000000000000 -0.000000000000000
 -0.000000000000000 0.000000000000000 0.000000000000000
 0.000000000000000 0.000000000000000 -0.000000000000000
 -0.000000000000000 0.000000000000000 0.000000000000000
 0.000000000000000 0.000000000000000 0.000000000000000
 0.000000000000000 -0.000000000000000 -0.000000000000000
 -0.000000000000000 0.000000000000000 0.000000000000000
 -0.000000000000000 0.000000000000000 0.000000000000000
 -0.000000000000000 0.000000000000000 -0.000000000000000
 -0.000000000000000 -0.000000000000000 0.000000000000000
 -0.000000000000000 0.000000000000000 0.000000000000000
 0.000000000000000 0.000000000000000 -0.000000000000000
 -0.000000000000000 0.000000000000000 -0.000000000000000
 -0.000000000000000 0.000000000000000 0.000000000000000
 0.000000000000000 -0.000000000000000 0.000000000000000
 0.000000000000000 0.000000000000000 -0.000000000000000
 -0.000000000000000 -0.000000000000000 0.000000000000000
 -0.000000000000000 0.000000000000000 -0.000000000000000
 -0.000000000000000 -0.000000000000000 -0.000000000000000
 -0.000000000000000 0.000000000000000 -0.000000000000000
 0.000000000000000 -0.000000000000000 0.000000000000000
 236769.372287210 155936.011669140 505988.364106767
 165317.023267191 152478.378804535 534621.946626975
 113356.721517156 147248.768898922 549425.203048271
 76512.7332529562 141577.395496154 557226.742659295
 50594.4211325920 135778.789273554 561608.693783907
 32275.2929884905 129707.030853573 564388.511231100
 19128.2297456359 123018.190707561 566480.922522406
 9472.69891403852 115297.049542351 568345.720791591
 2231.21795908913 106119.871880439 570204.870602223
 -3183.21238015916 95121.5213173810 572137.888398601
 -6922.39623752011 82081.4955309859 574120.813524233
 -8765.05158630137 67070.2079729218 576042.325765354
 -8205.82876101959 50621.1213967188 577728.453897576
 -4670.16860584759 33905.3733072183 578989.304897846
 2161.97404774865 18732.9667126157 579693.368796264
 11963.2136178845 7306.17283801828 579830.579875186
 23577.1481302107 1592.83069903592 579518.404346584
 35156.4681257640 2699.44183120249 578927.228382568
 44768.4623023197 10379.0859836055 578176.494988538
 50920.1479288108 23240.8058338862 577292.822992890
 53116.6377960316 39129.0123683945 576235.666355632
 51590.3044800170 55953.3013728824 574984.928975651
 47388.8465510609 71960.8186845671 573564.240340005
 41440.5052902091 86155.4679069170 572066.359674323
 34984.9548117130 98027.7592167011 570584.447176555
 28484.9258594515 107586.600932784 569222.041297165
 22747.2426448717 115035.351322185 568022.385912947
 17608.4701892995 120694.989753129 567029.682843927
 13559.5348360924 124953.112847665 566218.030978092
 10078.0772646884 128054.429169782 565597.467753037
 7563.24492254072 130379.483715572 565105.288908449
 5361.98159080241 131997.432977731 564754.749285660
 3890.39273390214 133264.503332649 564469.163901695
 2475.27515122262 134087.422513826 564282.230923963
 1562.61531467962 134823.638332740 564110.046693108
 494.209555938971 135254.517040281 564008.839804054
 -288.814114575407 135760.920115107 563887.301821833
 -1434.59034020016 136034.861145144 563819.526536442
 -2568.93850930023 136491.253701673 563705.187325681
 -4368.86218874819 136766.554763825 563627.379162163
 -6626.31745473043 137311.826300403 563472.762673616
 -10144.2834403548 137745.944613384 563314.431073844
 -15059.6513960459 138555.927828907 563005.738659297
 -22520.7967231732 139394.890035390 562549.445246349
 -33359.7220576691 140788.883726030 561663.261361658
 -49535.6425005642 142493.787347483 560037.267232660
 -73243.0190559644 145054.405729210 556771.658346681
 -108076.913157076 148320.457950391 550200.347687843
 -158441.537908579 152515.930591737 536689.081294655
 -229684.438024749 156700.141096071 509008.963290164
 0.000000000000000 -0.000000000000000 0.000000000000000
 0.000000000000000 -0.000000000000000 0.000000000000000
 0.000000000000000 0.000000000000000 0.000000000000000
 -0.000000000000000 -0.000000000000000 -0.000000000000000
 0.000000000000000 0.000000000000000 -0.000000000000000
 -0.000000000000000 0.000000000000000 0.000000000000000
 0.000000000000000 0.000000000000000 -0.000000000000000
 -0.000000000000000 0.000000000000000 0.000000000000000
 -0.000000000000000 0.000000000000000 0.000000000000000
 -0.000000000000000 0.000000000000000 0.000000000000000
 -0.000000000000000 -0.000000000000000 -0.000000000000000
 -0.000000000000000 0.000000000000000 0.000000000000000
 0.000000000000000 0.000000000000000 -0.000000000000000
 -0.000000000000000 0.000000000000000 0.000000000000000
 -0.000000000000000 0.000000000000000 0.000000000000000
 0.000000000000000 0.000000000000000 0.000000000000000
 0.000000000000000 -0.000000000000000 0.000000000000000
 0.000000000000000 0.000000000000000 -0.000000000000000
 0.000000000000000 0.000000000000000 -0.000000000000000
 -0.000000000000000 0.000000000000000 0.000000000000000
 0.000000000000000 0.000000000000000 -0.000000000000000
 0.000000000000000 -0.000000000000000 0.000000000000000
 0.000000000000000 -0.000000000000000 0.000000000000000
 -0.000000000000000 0.000000000000000 0.000000000000000
 0.000000000000000 0.000000000000000 -0.000000000000000
 230154.311376085 120341.198220544 518600.992060220
 157989.595413015 116545.005728686 545762.356141327
 106492.806749366 110433.235728722 559342.276747545
 70469.2718544444 103738.148871315 566279.505362023
 45204.0063420890 96934.1973234521 570052.944207713
 27120.3950090178 89860.7889568281 572354.368186888
 13682.2218564005 82059.3141050711 574002.670528350
 3173.91247391090 72920.3782184038 575389.037712827
 -5483.15204433244 61762.0553428060 576676.151373967
 -12803.5910700110 47890.3691109262 577877.651931731
 -18751.5563410159 30726.9742402118 578881.881033454
 -22701.7904736137 10028.4589640935 579468.772860193
 -23493.1813801900 -13746.0527417137 579360.955245225
 -19683.2292860222 -39037.1812793150 578349.953715429
 -10170.2151488353 -62954.0168036145 576483.615111580
 4989.41462724413 -81674.7091713979 574198.874627464
 23991.3491421557 -91510.3026714643 572232.714611211
 43572.5604356608 -90376.8912144349 571256.027987009
 60046.2803304986 -78554.6728418184 571509.936565574
 70742.1056287192 -58629.1838420443 572676.325067861
 74598.3224025638 -34250.0229720678 574162.020880114
 72425.4477358222 -9118.89365685603 575388.043235815
 65770.6132646348 14154.8176778607 576084.948221441
 56839.4335942992 34008.9290940908 576205.407411761
 46998.5920166983 50061.4160399483 575920.990216994
 37788.7683181894 62462.4137835392 575387.222532208
 29397.3221975588 71770.0706753259 574791.139808950
 22611.9720071958 78610.3384540233 574203.024556723
 16846.6436216386 83513.0016582405 573708.784273621
 12615.2954464440 87065.8640451947 573289.097784759
 9040.19016079892 89505.6776412212 572980.810003129
 6639.09383014375 91329.7809930792 572725.757703346
 4481.17542906030 92501.2769086498 572558.671960388
 3153.42714607893 93487.4147923820 572407.336756502
 1751.94714033329 94048.0689489916 572321.493051050
 901.678379737279 94672.5259791237 572220.499284001
 -262.618258096236 94977.9447238343 572170.534934898
 -1144.27581918470 95501.5514841293 572082.288046898
 -2591.42744233210 95765.7676903566 572033.392593901
 -4126.56187619574 96361.9571697244 571924.247341816
 -6642.29850612277 96762.6747415088 571832.899234929
 -9921.70124326851 97608.0532733684 571641.695278278
 -15047.3831704632 98372.4312688968 571398.670829718
 -22322.5917689104 99732.2867778151 570924.839948995
 -33346.9420386838 101226.830286352 570123.767516183
 -49454.8302665916 103536.835127065 568537.020373496
 -73437.0882126057 106305.116690288 565425.694711797
 -108562.626446950 110046.569106179 559020.490471413
 -159730.083400300 114224.578622561 545746.320276584
 -232295.078602496 118157.147203086 518148.516375265
 -0.000000000000000 0.000000000000000 -0.000000000000000
 0.000000000000000 0.000000000000000 -0.000000000000000
 -0.000000000000000 0.000000000000000 0.000000000000000
 0.000000000000000 0.000000000000000 -0.000000000000000
 0.000000000000000 0.000000000000000 0.000000000000000
 -0.000000000000000 0.000000000000000 0.000000000000000
 0.000000000000000 0.000000000000000 0.000000000000000
 0.000000000000000 0.000000000000000 0.000000000000000
 -0.000000000000000 -0.000000000000000 0.000000000000000
 -0.000000000000000 -0.000000000000000 0.000000000000000
 -0.000000000000000 -0.000000000000000 -0.000000000000000
 0.000000000000000 0.000000000000000 0.000000000000000
 -0.000000000000000 -0.000000000000000 0.000000000000000
 0.000000000000000 0.000000000000000 -0.000000000000000
 0.000000000000000 0.000000000000000 0.000000000000000
 0.000000000000000 0.000000000000000 -0.000000000000000
 -0.000000000000000 -0.000000000000000 0.000000000000000
 0.000000000000000 -0.000000000000000 -0.000000000000000
 0.000000000000000 -0.000000000000000 -0.000000000000000
 0.000000000000000 0.000000000000000 -0.000000000000000
 0.000000000000000 -0.000000000000000 0.000000000000000
 0.000000000000000 -0.000000000000000 0.000000000000000
 -0.000000000000000 0.000000000000000 -0.000000000000000
 0.000000000000000 0.000000000000000 0.000000000000000
 -0.000000000000000 0.000000000000000 -0.000000000000000
 217602.893129274 97602.4715764598 528699.100097528
 146113.978668538 92829.6210115075 553564.239000777
 96498.8696810987 85389.4254097239 565505.627008668
 62303.4282217784 77486.5541384234 571414.137696616
 38247.4902896949 69644.3630482603 574531.802585498
 20564.0293302767 61581.9595109917 576354.737085148
 6664.99719512109 52635.1096794179 577568.284310544
 -5207.76978818378 41921.1496987792 578459.589203745
 -16165.1591922617 28378.5586226680 579079.739793052
 -26714.6514760116 10813.0647609947 579283.527322321
 -36631.5266341267 -11981.7839366311 578718.038521480
 -44758.4353535426 -40879.7789627524 576823.652546131
 -48845.4098546462 -75780.7580566239 572949.738323088
 -45825.6234144875 -114679.681676737 566699.729000461
 -32883.6508184095 -152989.391019115 558491.639816080
 -9283.74282660981 -183971.241846121 549971.266788298
 22199.6725752018 -200908.672413766 543638.556291302
 55595.1056198985 -199852.875617355 541634.574541348
 84037.6892976613 -181360.012551127 544468.743478415
 102388.757852330 -149874.362408006 550866.787670350
 108991.664540504 -111920.901272832 558564.704326157
 105180.103031479 -73550.5988303996 565621.300286664
 94421.5866916547 -39152.9209812081 570921.722082169
 79993.0130121941 -10707.7551288177 574357.433876617
 65080.4860831697 11361.5761593188 576225.168591545
 51002.3405671638 27810.6424760555 577083.468331697
 39190.5947652955 39671.7362518458 577312.957263828
 29234.0763368190 48030.9929690873 577268.042156446
 21745.9582143244 53883.7691752675 577082.015592937
 15637.9429809480 57847.3162669781 576896.128206831
 11426.1111742751 60655.9854980004 576706.420465994
 7892.64922027216 62456.3526892067 576573.421254438
 5673.80369751744 63847.0834248292 576447.185689847
 3596.38061003236 64644.0338283429 576375.064464891
 2403.95474040129 65429.9365115909 576292.585766723
 997.534756563310 65801.0211088821 576254.484186837
 149.004758642579 66386.9025284415 576188.126370425
 -1182.05260142160 66638.4954720435 576157.889534518
 -2292.40508050602 67254.0104880782 576083.017413476
 -4206.67477275347 67595.7324669123 576032.222049790
 -6414.47909455561 68428.2419412916 575913.561363829
 -10021.2705324987 69080.2012069440 575784.247733578
 -14909.0387040359 70364.7938754399 575522.820006112
 -22485.8290764244 71638.3946640165 575119.403168340
 -33402.6655212398 73723.9940725130 574324.851137466
 -49856.6787351362 76060.3415683282 572825.572077584
 -73990.8405848843 79367.5108521217 569759.733335623
 -109685.127752685 83099.9274476081 563439.060420982
 -161498.893426090 87408.0306273336 550161.743130145
 -235021.498989029 90946.3550346298 522392.242973481
 -0.000000000000000 -0.000000000000000 0.000000000000000
 0.000000000000000 -0.000000000000000 -0.000000000000000
 0.000000000000000 0.000000000000000 0.000000000000000
 -0.000000000000000 0.000000000000000 0.000000000000000
 -0.000000000000000 -0.000000000000000 -0.000000000000000
 0.000000000000000 0.000000000000000 -0.000000000000000
 -0.000000000000000 -0.000000000000000 -0.000000000000000
 -0.000000000000000 0.000000000000000 0.000000000000000
 0.000000000000000 -0.000000000000000 0.000000000000000
 0.000000000000000 -0.000000000000000 0.000000000000000
 -0.000000000000000 -0.000000000000000 -0.000000000000000
 0.000000000000000 0.000000000000000 0.000000000000000
 -0.000000000000000 0.000000000000000 0.000000000000000
 -0.000000000000000 -0.000000000000000 -0.000000000000000
 0.000000000000000 -0.000000000000000 0.000000000000000
 -0.000000000000000 -0.000000000000000 0.000000000000000
 -0.000000000000000 -0.000000000000000 -0.000000000000000
 -0.000000000000000 -0.000000000000000 -0.000000000000000
 -0.000000000000000 0.000000000000000 -0.000000000000000
 -0.000000000000000 0.000000000000000 0.000000000000000
 0.000000000000000 0.000000000000000 0.000000000000000
 -0.000000000000000 0.000000000000000 -0.000000000000000
 -0.000000000000000 0.000000000000000 -0.000000000000000
 -0.000000000000000 -0.000000000000000 0.000000000000000
 -0.000000000000000 -0.000000000000000 0.000000000000000
 194620.280981478 85650.8129122063 539617.350052951
 126934.461261296 78394.7108095948 560483.641029232
 82104.7152698687 68733.2197527143 570030.315187604
 51554.5113398977 59335.0779813355 574649.006682735
 29626.0997128368 50477.6916720905 577039.250709397
 12651.1976934541 41554.7112093772 578371.120625180
 -1868.08924002662 31593.8989140216 579135.852623546
 -15704.4642322388 19352.9001743422 579464.265557437
 -30099.1211089357 3287.76626207230 579209.144870379
 -45691.6987781992 -18502.5482087273 577901.310236052
 -62218.1270323777 -48186.3879265117 574636.386497739
 -77920.5763757059 -87773.7615685694 568000.132532891
 -88928.5860830468 -138007.264911642 556278.438741677
 -89265.4704017093 -196513.896210972 538343.723275329
 -72693.6575620031 -256066.140338643 515311.327182246
 -36578.8096997622 -305232.032716121 491828.625524108
 14765.6139229076 -332535.679929049 474975.786982458
 70718.9551890893 -331650.355816322 470538.915355437
 118811.687539257 -303627.337628745 479681.376278624
 149864.693726056 -255791.294183308 498509.164804845
 160711.804080658 -198385.282786981 520783.060018920
 154220.975573955 -141292.872775349 540973.395645208
 136252.438524868 -91156.7814664161 556350.352016346
 113414.391102170 -51050.6182110968 566507.731872381
 90038.8267736034 -20909.7124232841 572586.931041574
 69352.1127152608 671.053333178663 575838.375023195
 51812.3038710609 15678.7240879413 577468.321883155
 38283.3498284297 25906.0729055580 578155.048851539
 27525.4506503311 32724.1864236057 578421.539354656
 19910.4052699195 37335.9212407821 578454.496695367
 13863.6505502274 40282.4882461680 578433.332661699
 9923.14262139852 42377.9868632520 578364.623287017
 6590.19647985441 43605.5554428171 578320.953143564
 4624.86574817417 44651.7020502366 578260.180300207
 2664.11922069049 45158.4935970737 578233.182137467
 1587.81322453708 45827.1950424390 578184.526811040
 143.884971062852 46085.8776995950 578166.127660358
 -789.385414782947 46707.4687042664 578115.723050244
 -2395.43724983854 46984.9356915988 578088.814714866
 -3923.95108769888 47773.8576526985 578015.796611858
 -6559.74709981775 48294.8150824172 577948.596809562
 -9846.31984029595 49471.1815780665 577802.433517611
 -15119.6238880465 50513.9262504915 577598.251579975
 -22498.3949362092 52375.8423448517 577191.990037944
 -33805.1420184035 54320.1493695595 576460.348806043
 -50271.1698369968 57241.1976142142 574975.003612253
 -74895.3865899090 60468.3604780062 571956.517970248
 -110938.073061368 64579.1015024175 565616.728531407
 -163431.595068112 68684.5700166082 552243.192420809
 -237552.587158995 72074.8185150627 524188.886633520
 0.000000000000000 -0.000000000000000 0.000000000000000
 0.000000000000000 -0.000000000000000 0.000000000000000
 0.000000000000000 -0.000000000000000 0.000000000000000
 0.000000000000000 -0.000000000000000 -0.000000000000000
 -0.000000000000000 0.000000000000000 -0.000000000000000
 0.000000000000000 0.000000000000000 -0.000000000000000
 -0.000000000000000 -0.000000000000000 -0.000000000000000
 0.000000000000000 -0.000000000000000 0.000000000000000
 0.000000000000000 -0.000000000000000 0.000000000000000
 -0.000000000000000 -0.000000000000000 0.000000000000000
 0.000000000000000 0.000000000000000 -0.000000000000000
 0.000000000000000 0.000000000000000 0.000000000000000
 0.000000000000000 -0.000000000000000 -0.000000000000000
 0.000000000000000 -0.000000000000000 0.000000000000000
 -0.000000000000000 0.000000000000000 0.000000000000000
 -0.000000000000000 0.000000000000000 0.000000000000000
 0.000000000000000 -0.000000000000000 0.000000000000000
 0.000000000000000 -0.000000000000000 -0.000000000000000
 0.000000000000000 -0.000000000000000 -0.000000000000000
 0.000000000000000 0.000000000000000 0.000000000000000
 0.000000000000000 -0.000000000000000 0.000000000000000
 -0.000000000000000 -0.000000000000000 -0.000000000000000
 -0.000000000000000 -0.000000000000000 0.000000000000000
 0.000000000000000 0.000000000000000 0.000000000000000
 -0.000000000000000 0.000000000000000 -0.000000000000000
 152134.493752890 84379.2034785599 553294.899516411
 97398.7753260885 70804.1412767558 567362.540306495
 62808.9598577526 57547.7090214918 573710.114733883
 38440.3768640075 46484.4629341734 576854.862276704
 19699.0588834263 36832.4083275342 578494.011011265
 3734.28979982048 27378.5006342630 579341.412970548
 -11586.7560547289 16757.2386952233 579642.080973630
 -28052.9822594094 3350.42375859690 579311.492072263
 -47182.2084064639 -14923.5550308967 577885.046280944
 -70052.2517842519 -40804.0370395215 574306.288126147
 -96689.9673166515 -77745.5313689386 566574.516345790
 -124886.018250423 -129414.968718134 551412.049484992
 -148502.219397049 -197951.886177896 524558.997246987
 -156677.762189632 -280459.633308858 482902.135964950
 -136949.254681752 -365543.881367970 428978.522115679
 -83419.7239737086 -435043.133580279 374404.355712913
 -3308.60673762478 -472646.659757862 336146.081549662
 85558.9596159943 -471314.455702684 327020.409569664
 163096.648209943 -433669.569084604 348898.535669980
 214178.468050164 -368877.988796250 393009.685892495
 232855.955256037 -290066.669527507 445016.214683261
 222870.517439874 -210906.827478944 492185.983728560
 194569.421340895 -141859.478693275 527653.890901926
 158671.174648582 -87541.5544489798 550962.734293614
 123516.365212586 -47973.2022677973 564661.207618200
 92677.1071636583 -20503.0873917954 572180.545995039
 68164.3365789437 -2079.43349906189 575976.821734239
 48913.9016832116 10013.7524564968 577846.999632139
 35012.5665647164 17910.5179184414 578665.130736633
 24396.8171534906 22912.1260531301 579033.530801546
 17263.4393286617 26245.3393858028 579148.647432652
 11661.9942842379 28232.6284120310 579195.059183227
 8202.55953353553 29719.5518975441 579179.994692589
 5190.68657959555 30480.3899248143 579175.277962435
 3513.50893803296 31285.0631989536 579144.973280076
 1675.44236693905 31593.0792244916 579136.486709299
 664.668313285620 32226.9500685264 579103.602048298
 -883.692071103280 32453.2907865321 579090.669071303
 -2033.56944228702 33186.3001791775 579046.227926356
 -4086.06682478633 33577.4119859327 579012.833590267
 -6313.88653892110 34628.2905256964 578930.925354694
 -10061.2753176805 35442.0667550500 578828.671234514
 -15031.3708433892 37075.2620932187 578618.598760261
 -22839.8521694030 38648.8982477444 578259.979435820
 -34015.7013874776 41202.9082783888 577533.767331851
 -50937.7583492050 43923.5669570087 576086.855465503
 -75690.8376431316 47664.6308642149 573061.061372573
 -112281.902930947 51600.2657717198 566683.497947923
 -165177.456882862 55893.6271631267 553165.716743419
 -239766.690202931 59010.5398344122 524813.957948512
 257220.799399464 272500.302472431 442697.464990183
 188430.552743446 269846.883622142 477573.644783941
 135048.273513583 267259.946852885 496723.348182058
 95585.2636012313 264967.007231073 507006.846562541
 67157.7336819336 263078.895439555 512522.520072055
 46973.8590648381 261579.375318145 515528.551074260
 32766.8286417391 260400.516124876 517221.331871241
 22824.9475412819 259468.355623427 518223.112375174
 15900.3952114557 258720.056464895 518855.577029795
 11100.6494122950 258106.448287807 519285.891330468
 7794.88710274988 257588.968087612 519602.889959837
 5541.53178951886 257135.063385891 519856.567336569
 4035.02076327427 256713.387416058 520078.797230586