# ODT 1.0
# Table Start
# Title: mmArchive Data Table, Fri Apr 16 14:49:28 CEST 2021
# Columns: {Anv_SpinTEvolve:evolver:Total energy} {Anv_SpinTEvolve:evolver:Energy calc count} {Anv_SpinTEvolve:evolver:Max dm/dt} Anv_SpinTEvolve:evolver:dE/dt {Anv_SpinTEvolve:evolver:Delta E} {Anv_SpinTEvolve:evolver:average u} Oxs_UniformExchange:exchange:Energy {Oxs_UniformExchange:exchange:Max Spin Ang} {Oxs_UniformExchange:exchange:Stage Max Spin Ang} {Oxs_UniformExchange:exchange:Run Max Spin Ang} Oxs_DMExchange6Ngbr:dmi:Energy Oxs_UniaxialAnisotropy:uniaxialanisotropy:Energy Oxs_TimeDriver::Iteration {Oxs_TimeDriver::Stage iteration} Oxs_TimeDriver::Stage Oxs_TimeDriver::mx   Oxs_TimeDriver::my   Oxs_TimeDriver::mz   {Oxs_TimeDriver::Last time step} {Oxs_TimeDriver::Simulation time}
# Units:                     J                                        {}                                    deg/ns                             J/s                              J                                 m/s                                  J                                      deg                                            deg                                              deg                                     J                                       J                                    {}                            {}                          {}                   {}                   {}                   {}                          s                                 s                
                    -3.1233723444799998e-19                      91                                      5340.5946681699997               1.8898962341999999e-09             2.05378514081e-22                  400                                 7.8590607863799998e-19                     25.9971319691                                  25.9971319691                                    25.9971319691                          -1.7951655065599999e-18                     6.9692219346899999e-19                  13                            13                          0                     0.0073992725582799996 -0.0025270245002600002  0.77921184285300005        1.11012757271e-13                2e-12                     
                    -3.0756305904699999e-19                      158                                     5775.57168095                    2.7300115751800001e-09             1.4746446795899999e-22                400                                 7.9632052943499995e-19                     27.523417929600001                             27.523417929600001                               27.523417929600001                     -1.8060352918100001e-18                     7.0215170333000004e-19                  25                            11                          1                     0.0122427742245     -0.00207841380738     0.77903673725              5.4332727367499999e-14              3.9999999999999999e-12       
                    -3.0167472521600002e-19                      231                                     6254.8921247300004               3.03305261154e-09               2.4044151956700001e-22                400                                 8.0789141861800005e-19                     28.151940817300002                             28.151940817300002                               28.151940817300002                     -1.81991941637e-18                       7.1035327253500005e-19                  37                            11                          2                     0.015084123312900001  6.7157857426400003e-05  0.77919813247799996        7.9900173995900005e-14              6.0000000000000003e-12       
                    -2.9542034257999999e-19                      298                                     6425.2685298799997               3.04674617415e-09               2.2625146147200001e-22                400                                 8.1936517525300002e-19                     28.456375748500001                             28.456375748500001                               28.456375748500001                     -1.83574375638e-18                       7.2095823854899999e-19                  49                            11                          3                     0.016135021661899999  0.0027496744328299998  0.77989420531300002        7.5560143426800004e-14              7.9999999999999998e-12       
                    -2.8909200944400002e-19                      371                                     6348.5777240899997               3.1385359034700001e-09             3.63544301409e-22                  400                                 8.3096829421500002e-19                     28.716674576999999                             28.716674576999999                               28.716674576999999                     -1.8519234656799999e-18                     7.3186316202199997e-19                  61                            11                          4                     0.016038337306399999  0.0051726286065999997  0.78115213810600004        1.16977541456e-13                9.9999999999999994e-12       
                    -2.8267616330299999e-19                      444                                     6324.8536673199997               3.22273741861e-09               3.5049789417500002e-22                400                                 8.4344301862600002e-19                     28.707577219000001                             28.744134922099999                               28.744134922099999                     -1.8669778902300001e-18                     7.40858708306e-19                    73                            11                          5                     0.0154846704552      0.0069551346415099996  0.78290166704399999        1.0943838196600001e-13              1.2000000000000001e-11       
                    -2.76052957569e-19                        517                                     6071.76584748                    3.28979173266e-09               2.4019849557899998e-22                400                                 8.5721383853199999e-19                     28.467557794400001                             28.707577219000001                               28.744134922099999                     -1.8803646194399999e-18                     7.4709782333400003e-19                  85                            11                          6                     0.0149752488057      0.0080416394233399999  0.78503365249000001        7.4056715699999997e-14              1.4e-11                   
                    -2.6911512503499998e-19                      584                                     5957.4834115599997               3.5162852074200001e-09             3.7474691803000001e-22                400                                 8.7218081487699997e-19                     28.011490033400001                             28.467557794400001                               28.744134922099999                     -1.89255595832e-18                       7.5126001840799997e-19                  97                            11                          7                     0.014772106846400001  0.0085716063716499997  0.78743582298500003        1.07833556269e-13                1.6e-11                   
                    -2.6176738162399999e-19                      657                                     5742.6691080000001               3.7345010265999999e-09             3.8373266297299999e-22                400                                 8.8802323222700004e-19                     27.368102421300001                             28.011490033400001                               28.744134922099999                     -1.9043941686799999e-18                     7.5460355482900005e-19                  109                           11                          8                     0.014946162515599999  0.0087728372853299996  0.79001586388699996        1.0381189554e-13                 1.7999999999999999e-11       
                    -2.5399251951000002e-19                      730                                     5661.9069023499997               3.9477282146199998e-09             4.0894579561800002e-22                400                                 9.0441088911699992e-19                     26.614748432700001                             27.368102421300001                               28.744134922099999                     -1.9165070425299999e-18                     7.5810363390199997e-19                  121                           11                          9                     0.015448661952799999  0.0088806528989700002  0.79271381434300003        1.04501183078e-13                1.9999999999999999e-11       
                    -2.4582519256100002e-19                      803                                     5692.6878413900004               4.1467315674199997e-09             4.5743174321799996e-22                400                                 9.2111352161699997e-19                     25.8269395449                                  26.614748432700001                               28.744134922099999                     -1.92910749365e-18                       7.6216877947500004e-19                  133                           11                          10                    0.0161744981213      0.0090806033416699992  0.79549968421200001        1.10912017441e-13                2.2000000000000002e-11       
                    -2.37324739477e-19                        870                                     5748.9191119300003               4.28567995465e-09               4.0566284055800002e-22                400                                 9.3799323073799998e-19                     26.1795409076                                  26.1795409076                                    28.744134922099999                     -1.9420732611299998e-18                     7.6675529091300005e-19                  145                           11                          11                    0.017009328750999999  0.0094768657420200002  0.79835785530900005        9.5231116937200004e-14              2.4000000000000001e-11       
                    -2.2855466303999999e-19                      943                                     5826.8819295100002               4.3725205698900002e-09             3.6934115210800002e-22                400                                 9.5499358836500004e-19                     26.537278521299999                             26.537278521299999                               28.744134922099999                     -1.95514131428e-18                       7.7159306287700003e-19                  157                           11                          12                    0.017858591075099999  0.0100881900828      0.80126695900199996        8.5288585262900005e-14              2.6000000000000001e-11       
                    -2.1956443908800002e-19                      1016                                    5856.7776702900001               4.4975449847699999e-09             4.7989309973400005e-22                400                                 9.7215638684300009e-19                     26.812725156399999                             26.812725156399999                               28.744134922099999                     -1.9681018570700001e-18                     7.7638103113400002e-19                  169                           11                          13                    0.018661471032199999  0.0108688474975      0.80418568875200003        1.07617204238e-13                2.8e-11                   
                    -2.1036027195e-19                         1089                                    5851.1115943100003               4.62725491836e-09               5.13803292444e-22                  400                                 9.8962072366899992e-19                     27.014232808300001                             27.014232808300001                               28.744134922099999                     -1.98090401445e-18                       7.8092301882800001e-19                  181                           11                          14                    0.0193945151208      0.011744647193       0.80704946427000002        1.11640979803e-13                3e-11                     
                    -2.0092027963399999e-19                      1156                                    5793.6952627700002               4.7428682552399998e-09             4.5619977508400002e-22                400                                 1.00754140713e-18                       27.156510580900001                             27.156510580900001                               28.744134922099999                     -1.9936529054e-18                        7.8519121862800001e-19                  193                           11                          15                    0.020067330062999999  0.0126481378206      0.80977583149999999        9.6794839438100003e-14              3.1999999999999999e-11       
                    -1.9120626873299999e-19                      1229                                    5735.44002473                    4.8551489829999998e-09             4.18571723598e-22                  400                                 1.02602954268e-18                       27.251390835500001                             27.251390835500001                               28.744134922099999                     -2.0065473521500001e-18                     7.8931154073900004e-19                  205                           11                          16                    0.020711650499199999  0.013539749556199999  0.81227378488799995        8.70612237865e-14                3.3999999999999999e-11       
                    -1.81183763112e-19                        1302                                    5650.6324797099996               5.0496409153400002e-09             5.6524961069499996e-22                400                                 1.0451281168299999e-18                     27.307318714400001                             27.307318714400001                               28.744134922099999                     -2.0198094654699999e-18                     7.9349758553400002e-19                  217                           11                          17                    0.0213666180985      0.0144118827877      0.81445362973000002        1.1278526451e-13                 3.5999999999999998e-11       
                    -1.7081364618199999e-19                      1375                                    5557.24837493                    5.2433973612800001e-09             5.7861586183699996e-22                400                                 1.0648342712799999e-18                     27.3368753739                                  27.336970695600002                               28.744134922099999                     -2.0336278142e-18                        7.9797989673600001e-19                  229                           11                          18                    0.022064695325100001  0.015281252087099999  0.81623538100000004        1.1092384638e-13                 3.7999999999999998e-11       
                    -1.60085487504e-19                        1442                                    5481.8805288100002               5.40995916183e-09               5.2384783136300003e-22                400                                 1.08508077471e-18                       27.350513388300001                             27.350748741699999                               28.744134922099999                     -2.0481242819899999e-18                     8.0295801978e-19                     241                           11                          19                    0.022822286564999999  0.016176826072100001  0.81755439023499998        9.73812955884e-14                3.9999999999999998e-11       
                    -1.4901758651400001e-19                      1515                                    5355.1429997499999               5.5389697715400002e-09             4.8560814013399999e-22                400                                 1.105746845e-18                         27.351412739699999                             27.352147195299999                               28.744134922099999                     -2.0633429048e-18                        8.0857847328600003e-19                  253                           11                          20                    0.023636708053299999  0.017128795290700001  0.81836359665799996        8.8399133119299995e-14              4.1999999999999997e-11       
                    -1.37660218568e-19                        1588                                    5285.4518078600004               5.6979193844799997e-09             6.3789649517200004e-22                400                                 1.12666387041e-18                       27.3385119398                                  27.351412739699999                               28.744134922099999                     -2.0792532684700001e-18                     8.14929179486e-19                    265                           11                          21                    0.024488353331599998  0.018161055464       0.81863322320099996        1.1265329314e-13                 4.4000000000000003e-11       
                    -1.2606674043299999e-19                      1661                                    5084.6372534000002               5.8160599642099999e-09             6.5097942254799997e-22                400                                 1.1476505517e-18                        27.312977071700001                             27.3385119398                                    28.744134922099999                     -2.0957617507399999e-18                     8.2204445860799999e-19                  277                           11                          22                    0.0253454601916      0.019287497212400001  0.81834921167999997        1.12366723599e-13                4.6000000000000003e-11       
                    -1.14303528719e-19                        1728                                    5010.5250384499996               5.8743482629000003e-09             5.7305709006600003e-22                400                                 1.1685077665500001e-18                     27.270853177100001                             27.312977071700001                               28.744134922099999                     -2.1127276968e-18                        8.2991640152499998e-19                  289                           11                          23                    0.026169161229099999  0.020511115069999999  0.81751169802699997        9.7976338152499996e-14              4.8000000000000002e-11       
                    -1.0244044834500001e-19                      1801                                    4762.4583854499997               5.8798997314000001e-09             5.20879472038e-22                  400                                 1.18903274432e-18                       27.297300330599999                             27.297300330599999                               28.744134922099999                     -2.1299822706000002e-18                     8.3850907793300003e-19                  301                           11                          24                    0.026917315035499999  0.0218246174237      0.81613416855499998        8.9165928989299999e-14              5.0000000000000002e-11       
                    -9.0551407569500005e-20                      1874                                    4600.5987790999998               5.9051231341100004e-09             6.7460408285899999e-22                400                                 1.2090272850300001e-18                     27.418311000599999                             27.418311000599999                               28.744134922099999                     -2.1473492365199999e-18                     8.4777054391999998e-19                  313                           11                          25                    0.027546662981799998  0.023211358507800001  0.81424355648900004        1.1473874251800001e-13              5.2000000000000001e-11       
                    -7.8694943742999997e-20                      1947                                    4375.8175785599997               5.8858377423399999e-09             6.6018777564999995e-22                400                                 1.22833262797e-18                       27.473487570900001                             27.473487570900001                               28.744134922099999                     -2.16466628434e-18                       8.5763871262599998e-19                  325                           11                          26                    0.028013365738999998  0.024645693901799999  0.81188114177699999        1.12456247414e-13                5.4000000000000001e-11       
                    -6.6936202334099995e-20                      2014                                    4058.5355555900001               5.8173010156700004e-09             5.8841874155400005e-22                400                                 1.24683047622e-18                       27.4620774003                                  27.477333203600001                               28.744134922099999                     -2.1818047079799998e-18                     8.6803802942399991e-19                  337                           11                          27                    0.028272600270699999  0.0260922272862      0.80910406007799995        1.01414060666e-13                5.6e-11                   
                    -5.5343412803199996e-20                      2087                                    4158.9128426400002               5.6885077202999998e-09             4.8549120967799997e-22                400                                 1.26447083833e-18                       27.384472150000001                             27.4620774003                                    28.744134922099999                     -2.19868344417e-18                       8.7886919303699998e-19                  349                           11                          28                    0.028278123308800002  0.027503796429299999  0.80598703023100005        8.5758379789499997e-14              5.8e-11                   
                    -4.3991834650100001e-20                      2154                                    4272.4871600300003               5.5043726408300003e-09             4.7858426969100003e-22                400                                 1.2812871187400001e-18                     27.289631637900001                             27.384472150000001                               28.744134922099999                     -2.21527322157e-18                       8.8999426818000002e-19                  361                           11                          29                    0.027982828948699998  0.028818543976800001  0.80262407812900005        8.7784844715399999e-14              6e-11                     
                    -3.2973031476100002e-20                      2227                                    4322.1368192399996               5.3723412298800001e-09             6.25497545607e-22                  400                                 1.29739313891e-18                       27.448345922200001                             27.448345922200001                               28.744134922099999                     -2.23158631568e-18                       9.0122014530000002e-19                  373                           11                          30                    0.027341039792000001  0.029956698213399999  0.79913001634500003        1.1696372939599999e-13              6.2000000000000006e-11       
                    -2.2359934041599999e-20                      2300                                    4427.7377133800001               5.1267318495099996e-09             4.72498391058e-22                  400                                 1.31301204943e-18                       27.5312187663                                  27.5312187663                                    28.744134922099999                     -2.2476523901999999e-18                     9.1228040673499994e-19                  385                           11                          31                    0.026312999868200002  0.0308175383442      0.79564128098999998        9.2725013807900001e-14              6.3999999999999999e-11       
                    -1.22656281291e-20                        2373                                    4441.8588383899996               4.8547278007800003e-09             5.2626619622299996e-22                400                                 1.3284163485500001e-18                     27.5407899615                                  27.545468537400001                               28.744134922099999                     -2.2634905328200002e-18                     9.2280855613399993e-19                  397                           11                          32                    0.024872236876100001  0.031276799658899998  0.79231550225299996        1.08891626466e-13                6.6000000000000005e-11       
                    -2.8167706795800001e-21                      2446                                    5097.72514426                    4.5037718162600004e-09             4.8088262700599999e-22                400                                 1.34397197935e-18                       27.483099582400001                             27.5407899615                                    28.744134922099999                     -2.2790964951699998e-18                     9.3230774514199994e-19                  409                           11                          33                    0.023017617825299999  0.0311858573755      0.78932746226299999        1.07070344421e-13                6.7999999999999998e-11       
                     5.8284205968699998e-21                      2513                                    5867.5917878399996               4.0313712517700001e-09             3.6380277925100002e-22                400                                 1.36014425164e-18                       27.3674437723                                  27.483099582400001                               28.744134922099999                     -2.2944663806300002e-18                     9.4015054959100001e-19                  421                           11                          34                    0.020793114148700002  0.030379096979       0.78685725935200002        9.0816830548399997e-14              7.0000000000000004e-11       
                     1.35179227037e-20                        2586                                    6408.2817364100001               3.4527709707899999e-09             2.8277479685399998e-22                400                                 1.37746478847e-18                       27.207436080800001                             27.3674437723                                    28.744134922099999                     -2.3096526987799999e-18                     9.4570583300999994e-19                  433                           11                          35                    0.0183146046896      0.028705475057299999  0.78506509772699995        8.3447008451099995e-14              7.1999999999999997e-11       
                     2.02090318582e-20                        2659                                    6755.2454754299997               3.0237670675800002e-09             3.1867712208999999e-22                400                                 1.39631090353e-18                       27.0221344186                                  27.207436080800001                               28.744134922099999                     -2.3247738431300002e-18                     9.4867197145899993e-19                  445                           11                          36                    0.015786631574299999  0.0261022003765      0.784053454032             1.07546681154e-13                7.4000000000000003e-11       
                     2.6148745730299999e-20                      2732                                    6933.1152847399999               2.7948960078500002e-09             3.0696763920000001e-22                400                                 1.41659026851e-18                       26.836742604400001                             27.0221344186                                    28.744134922099999                     -2.3398603050699999e-18                     9.4941878229299994e-19                  457                           11                          37                    0.013472485831999999  0.022691878290600001  0.78383321215000001        1.11496981929e-13                7.5999999999999996e-11       
                     3.1844700415899999e-20                      2799                                    6994.1660796599999               2.7978887193799998e-09             2.6674118050900002e-22                400                                 1.43761375253e-18                       26.794333154899999                             26.836742604400001                               28.744134922099999                     -2.3546423161599999e-18                     9.4887326404399996e-19                  469                           11                          38                    0.0116057168333      0.018819519749100001  0.78431580129              9.7424179410099996e-14              7.8000000000000002e-11       