# OOMMF OVF 2.0
# 
# Segment count: 1
# 
# Begin: Segment
# Begin: Header
# 
# Title: Field
# Desc: File generated by Field class
# meshunit: m
# meshtype: rectangular
# xbase: -4.7499999999999995e-08
# ybase: -4.7499999999999995e-08
# zbase: 2.5e-09
# xnodes: 20
# ynodes: 20
# znodes: 1
# xstepsize: 5e-09
# ystepsize: 5e-09
# zstepsize: 5e-09
# xmin: -5e-08
# ymin: -5e-08
# zmin: 0.0
# xmax: 5e-08
# ymax: 5e-08
# zmax: 5e-09
# valuedim: 3
# valuelabels: field_x field_y field_z
# valueunits: None None None
# 
# End: Header
# 
# Begin: Data Text
 565685.215839894 -565685.215839891 -687.866519139893
 610846.219326871 -516591.183199852 -667.663272460246
 656553.014243433 -457096.985661045 -696.553981537606
 695509.089619061 -395305.603275296 -765.686894571239
 726984.721101875 -333904.890557824 -859.852310817012
 751832.785490739 -273398.12224105 -964.062396100153
 771023.083842118 -213359.491683385 -1063.71575060987
 785203.804792775 -153145.917196887 -1145.85552048625
 794654.184446614 -92321.6250385108 -1201.95329963505
 799403.523067049 -30862.5291374503 -1229.47274472038
 799403.523067049 30862.5291374504 -1229.47274472038
 794654.184446614 92321.6250385109 -1201.95329963505
 785203.804792775 153145.917196887 -1145.85552048625
 771023.083842118 213359.491683385 -1063.71575060987
 751832.785490739 273398.12224105 -964.062396100153
 726984.721101875 333904.890557824 -859.852310817012
 695509.08961906 395305.603275296 -765.686894571238
 656553.014243433 457096.985661045 -696.553981537606
 610846.219326871 516591.183199852 -667.663272460246
 565685.215839894 565685.215839892 -687.866519139892
 516591.183199854 -610846.219326869 -667.663272460198
 565685.229187902 -565685.2291879 -665.550347131377
 618217.541304779 -507746.548113473 -717.287896485645
 664803.065649026 -445012.611701251 -811.991680061762
 703769.60124629 -380404.361551282 -932.777786734221
 735485.650302516 -314737.560291719 -1061.29199640759
 760645.608401225 -247824.273913345 -1177.99798509805
 779673.245290204 -179187.132077255 -1265.81063718598
 792593.970669703 -108595.869946276 -1317.07579318175
 799170.056529081 -36406.4851638742 -1337.3800201718
 799170.056529081 36406.4851638743 -1337.3800201718
 792593.970669703 108595.869946276 -1317.07579318175
 779673.245290204 179187.132077255 -1265.81063718598
 760645.608401225 247824.273913345 -1177.99798509805
 735485.650302516 314737.560291719 -1061.29199640759
 703769.60124629 380404.361551282 -932.77778673422
 664803.065649026 445012.611701251 -811.991680061762
 618217.541304779 507746.548113473 -717.287896485646
 565685.229187901 565685.2291879 -665.550347131377
 516591.183199854 610846.219326869 -667.663272460199
 457096.985661047 -656553.014243432 -696.553981537485
 507746.548113474 -618217.541304778 -717.287896485584
 565685.138382569 -565685.138382568 -805.249147019438
 620298.404454533 -505201.937873721 -944.139713170698
 668496.910959616 -439443.566013094 -1110.10231349894
 709628.457938121 -369358.675012643 -1273.13678341613
 743656.245369593 -294912.586401742 -1398.25056231493
 770356.274090597 -215752.375578907 -1457.189524841
 789048.022895216 -131913.280621666 -1450.50362994057
 798763.549590424 -44438.4325270688 -1420.40847756497
 798763.549590424 44438.4325270688 -1420.40847756497
 789048.022895216 131913.280621666 -1450.50362994057
 770356.274090597 215752.375578907 -1457.189524841
 743656.245369593 294912.586401742 -1398.25056231493
 709628.457938121 369358.675012643 -1273.13678341613
 668496.910959616 439443.566013094 -1110.10231349894
 620298.404454533 505201.937873721 -944.139713170698
 565685.138382569 565685.138382568 -805.249147019438
 507746.548113474 618217.541304778 -717.287896485584
 457096.985661047 656553.014243432 -696.553981537485
 395305.603275297 -695509.08961906 -765.686894571097
 445012.611701253 -664803.065649025 -811.991680061684
 505201.937873722 -620298.404454532 -944.139713170693
 565684.854129831 -565684.85412983 -1136.49294958185
 622538.481888611 -502438.077464893 -1347.91735868322
 674040.642992782 -430890.831891758 -1517.42726553603
 719090.094358658 -350580.915647024 -1567.73063709509
 756292.524776228 -260805.567530337 -1439.76136111895
 783511.795609373 -161579.423792422 -1164.45175316146
 798117.06998079 -54847.988345135 -916.94044019154
 798117.06998079 54847.9883451351 -916.94044019154
 783511.795609373 161579.423792422 -1164.45175316146
 756292.524776228 260805.567530337 -1439.76136111895
 719090.094358658 350580.915647024 -1567.73063709508
 674040.642992782 430890.831891758 -1517.42726553603
 622538.481888611 502438.077464893 -1347.91735868322
 565684.854129831 565684.85412983 -1136.49294958186
 505201.937873722 620298.404454532 -944.139713170694
 445012.611701253 664803.065649025 -811.991680061686
 395305.603275297 695509.08961906 -765.686894571098
 333904.890557824 -726984.721101875 -859.852310816935
 380404.361551283 -703769.60124629 -932.77778673418
 439443.566013095 -668496.910959616 -1110.10231349894
 502438.077464894 -622538.481888611 -1347.91735868323
 565684.343389893 -565684.343389892 -1564.38073759867
 627021.828024564 -496830.961748981 -1619.45309170177
 684491.759536806 -414088.50997912 -1317.96414229966
 735266.205673753 -315251.260464037 -499.569772908647
 774803.978069827 -199194.022792972 732.700978583166
 797064.349486004 -68449.1689247969 1770.32538185697
 797064.349486004 68449.168924797 1770.32538185697
 774803.978069827 199194.022792972 732.700978583167
 735266.205673753 315251.260464037 -499.569772908645
 684491.759536806 414088.50997912 -1317.96414229966
 627021.828024564 496830.961748982 -1619.45309170177
 565684.343389893 565684.343389892 -1564.38073759867
 502438.077464894 622538.481888611 -1347.91735868323
 439443.566013095 668496.910959616 -1110.10231349894
 380404.361551283 703769.60124629 -932.77778673418
 333904.890557824 726984.721101875 -859.852310816935
 273398.12224105 -751832.78549074 -964.062396100241
 314737.56029172 -735485.650302516 -1061.29199640767
 369358.675012642 -709628.457938121 -1273.13678341614
 430890.831891759 -674040.642992781 -1517.42726553601
 496830.961748982 -627021.828024563 -1619.45309170177
 565684.741117622 -565684.741117621 -1243.91855788379
 635656.701902629 -485737.109829857 132.137846832844
 703089.84221028 -381648.408019962 3027.61235157641
 760403.988255019 -248460.893274541 7277.30438271614
 795159.262588249 -87184.2699429313 10984.0882475729
 795159.262588249 87184.2699429314 10984.0882475729
 760403.988255019 248460.893274541 7277.30438271613
 703089.84221028 381648.408019963 3027.61235157641
 635656.701902628 485737.109829857 132.137846832843
 565684.741117622 565684.741117621 -1243.91855788379
 496830.961748982 627021.828024563 -1619.45309170177
 430890.831891759 674040.642992781 -1517.42726553601
 369358.675012642 709628.457938121 -1273.13678341614
 314737.56029172 735485.650302516 -1061.29199640766
 273398.12224105 751832.78549074 -964.062396100239
 213359.491683385 -771023.083842118 -1063.71575061004
 247824.273913345 -760645.608401225 -1177.99798509815
 294912.586401743 -743656.245369592 -1398.25056231494
 350580.915647025 -719090.094358658 -1567.73063709506
 414088.509979121 -684491.759536805 -1317.96414229967
 485737.109829857 -635656.701902628 132.137846832814
 565677.751276116 -565677.751276116 4166.94401129553
 651687.752297939 -463838.516727132 12526.1289005863
 734363.735749468 -316318.366222216 25545.93522644
 790727.868146821 -115357.638742336 37974.3824146758
 790727.868146821 115357.638742336 37974.3824146757
 734363.735749468 316318.366222216 25545.93522644
 651687.752297939 463838.516727132 12526.1289005863
 565677.751276116 565677.751276116 4166.94401129552
 485737.109829857 635656.701902628 132.137846832812
 414088.509979121 684491.759536805 -1317.96414229967
 350580.915647025 719090.094358658 -1567.73063709506
 294912.586401743 743656.245369592 -1398.25056231494
 247824.273913345 760645.608401225 -1177.99798509815
 213359.491683385 771023.083842118 -1063.71575061004
 153145.917196887 -785203.804792775 -1145.85552048636
 179187.132077256 -779673.245290204 -1265.81063718601
 215752.375578907 -770356.274090597 -1457.189524841
 260805.567530338 -756292.524776228 -1439.76136111894
 315251.260464037 -735266.205673753 -499.569772908664
 381648.408019963 -703089.84221028 3027.61235157639
 463838.516727133 -651687.752297939 12526.1289005863
 565191.556402882 -565191.556402881 33421.6866985691
 680755.135675059 -414356.801705004 69863.3389756925
 775477.704057191 -162793.951941148 110147.445370153
 775477.704057191 162793.951941149 110147.445370153
 680755.135675059 414356.801705004 69863.3389756924
 565191.556402882 565191.556402881 33421.6866985691
 463838.516727133 651687.752297939 12526.1289005863
 381648.408019963 703089.84221028 3027.61235157639
 315251.260464037 735266.205673753 -499.569772908662
 260805.567530338 756292.524776228 -1439.76136111895
 215752.375578907 770356.274090597 -1457.189524841
 179187.132077256 779673.245290204 -1265.81063718601
 153145.917196887 785203.804792775 -1145.85552048635
 92321.6250385108 -794654.184446614 -1201.9532996351
 108595.869946276 -792593.970669703 -1317.07579318177
 131913.280621667 -789048.022895216 -1450.50362994055
 161579.423792422 -783511.795609373 -1164.45175316143
 199194.022792973 -774803.978069827 732.700978583198
 248460.893274541 -760403.988255019 7277.30438271616
 316318.366222217 -734363.735749468 25545.93522644
 414356.801705004 -680755.135675059 69863.3389756925
 554204.549358046 -554204.549358046 160357.834051505
 704930.011145964 -249624.893663647 284184.960631565
 704930.011145964 249624.893663647 284184.960631565
 554204.549358046 554204.549358046 160357.834051504
 414356.801705004 680755.135675059 69863.3389756924
 316318.366222217 734363.735749468 25545.93522644
 248460.893274541 760403.988255019 7277.30438271615
 199194.022792972 774803.978069827 732.700978583194
 161579.423792422 783511.795609373 -1164.45175316144
 131913.280621667 789048.022895216 -1450.50362994056
 108595.869946276 792593.970669703 -1317.07579318178
 92321.6250385109 794654.184446615 -1201.95329963509
 30862.5291374503 -799403.523067049 -1229.4727447204
 36406.4851638745 -799170.056529081 -1337.3800201718
 44438.4325270687 -798763.549590424 -1420.40847756494
 54847.9883451355 -798117.06998079 -916.940440191487
 68449.1689247969 -797064.349486004 1770.32538185703
 87184.2699429319 -795159.262588249 10984.0882475729
 115357.638742336 -790727.868146821 37974.3824146758
 162793.95194115 -775477.704057191 110147.445370153
 249624.893663647 -704930.011145964 284184.960631566
 381888.089928901 -381888.0899289 590188.930378156
 381888.089928901 381888.089928901 590188.930378156
 249624.893663647 704930.011145964 284184.960631565
 162793.95194115 775477.704057191 110147.445370153
 115357.638742336 790727.868146821 37974.3824146758
 87184.2699429319 795159.262588249 10984.0882475729
 68449.168924797 797064.349486004 1770.32538185702
 54847.9883451354 798117.06998079 -916.940440191502
 44438.4325270687 798763.549590424 -1420.40847756496
 36406.4851638745 799170.056529081 -1337.38002017182
 30862.5291374503 799403.523067049 -1229.47274472041
 -30862.5291374504 -799403.523067049 -1229.47274472041
 -36406.4851638745 -799170.056529081 -1337.3800201718
 -44438.4325270688 -798763.549590424 -1420.40847756495
 -54847.9883451355 -798117.06998079 -916.940440191496
 -68449.168924797 -797064.349486004 1770.32538185702
 -87184.269942932 -795159.262588249 10984.0882475729
 -115357.638742336 -790727.868146821 37974.3824146758
 -162793.95194115 -775477.704057191 110147.445370153
 -249624.893663647 -704930.011145964 284184.960631566
 -381888.089928901 -381888.0899289 590188.930378156
 -381888.089928901 381888.089928901 590188.930378155
 -249624.893663647 704930.011145964 284184.960631565
 -162793.95194115 775477.704057191 110147.445370153
 -115357.638742336 790727.868146821 37974.3824146758
 -87184.269942932 795159.262588249 10984.0882475729
 -68449.168924797 797064.349486004 1770.32538185702
 -54847.9883451355 798117.06998079 -916.940440191501
 -44438.4325270688 798763.549590424 -1420.40847756496
 -36406.4851638745 799170.056529081 -1337.38002017182
 -30862.5291374504 799403.523067049 -1229.4727447204
 -92321.6250385109 -794654.184446614 -1201.9532996351
 -108595.869946276 -792593.970669703 -1317.07579318177
 -131913.280621667 -789048.022895216 -1450.50362994056
 -161579.423792422 -783511.795609373 -1164.45175316143
 -199194.022792973 -774803.978069827 732.700978583199
 -248460.893274541 -760403.988255018 7277.30438271616
 -316318.366222217 -734363.735749468 25545.93522644
 -414356.801705004 -680755.135675059 69863.3389756924
 -554204.549358046 -554204.549358046 160357.834051505
 -704930.011145964 -249624.893663647 284184.960631565
 -704930.011145964 249624.893663647 284184.960631565
 -554204.549358046 554204.549358046 160357.834051504
 -414356.801705004 680755.135675059 69863.3389756924
 -316318.366222217 734363.735749468 25545.93522644
 -248460.893274541 760403.988255018 7277.30438271615
 -199194.022792972 774803.978069827 732.700978583199
 -161579.423792422 783511.795609373 -1164.45175316143
 -131913.280621667 789048.022895216 -1450.50362994056
 -108595.869946276 792593.970669703 -1317.07579318177
 -92321.6250385109 794654.184446615 -1201.95329963509
 -153145.917196887 -785203.804792775 -1145.85552048636
 -179187.132077256 -779673.245290204 -1265.81063718601
 -215752.375578907 -770356.274090597 -1457.18952484099
 -260805.567530338 -756292.524776228 -1439.76136111895
 -315251.260464037 -735266.205673753 -499.569772908663
 -381648.408019963 -703089.84221028 3027.61235157639
 -463838.516727133 -651687.752297938 12526.1289005863
 -565191.556402882 -565191.556402881 33421.6866985691
 -680755.135675059 -414356.801705004 69863.3389756924
 -775477.704057191 -162793.951941148 110147.445370153
 -775477.704057191 162793.951941149 110147.445370153
 -680755.135675059 414356.801705004 69863.3389756924
 -565191.556402882 565191.556402881 33421.6866985691
 -463838.516727133 651687.752297938 12526.1289005863
 -381648.408019963 703089.84221028 3027.61235157639
 -315251.260464037 735266.205673753 -499.569772908664
 -260805.567530338 756292.524776228 -1439.76136111895
 -215752.375578907 770356.274090597 -1457.189524841
 -179187.132077256 779673.245290204 -1265.81063718601
 -153145.917196887 785203.804792775 -1145.85552048635
 -213359.491683385 -771023.083842118 -1063.71575061004
 -247824.273913345 -760645.608401225 -1177.99798509815
 -294912.586401743 -743656.245369592 -1398.25056231494
 -350580.915647025 -719090.094358658 -1567.73063709506
 -414088.509979121 -684491.759536805 -1317.96414229967
 -485737.109829857 -635656.701902628 132.137846832815
 -565677.751276116 -565677.751276115 4166.94401129553
 -651687.752297939 -463838.516727132 12526.1289005863
 -734363.735749468 -316318.366222216 25545.93522644
 -790727.868146821 -115357.638742335 37974.3824146757
 -790727.868146821 115357.638742336 37974.3824146757
 -734363.735749468 316318.366222216 25545.93522644
 -651687.752297939 463838.516727132 12526.1289005863
 -565677.751276116 565677.751276116 4166.94401129553
 -485737.109829857 635656.701902628 132.137846832812
 -414088.509979121 684491.759536805 -1317.96414229967
 -350580.915647025 719090.094358658 -1567.73063709506
 -294912.586401743 743656.245369592 -1398.25056231494
 -247824.273913345 760645.608401225 -1177.99798509815
 -213359.491683385 771023.083842118 -1063.71575061004
 -273398.12224105 -751832.78549074 -964.062396100239
 -314737.56029172 -735485.650302516 -1061.29199640766
 -369358.675012642 -709628.457938121 -1273.13678341614
 -430890.831891759 -674040.642992781 -1517.42726553601
 -496830.961748982 -627021.828024563 -1619.45309170177
 -565684.741117622 -565684.741117621 -1243.91855788379
 -635656.701902629 -485737.109829857 132.137846832843
 -703089.84221028 -381648.408019962 3027.61235157641
 -760403.988255019 -248460.893274541 7277.30438271614
 -795159.262588249 -87184.2699429313 10984.0882475728
 -795159.262588249 87184.2699429314 10984.0882475728
 -760403.988255019 248460.893274541 7277.30438271612
 -703089.84221028 381648.408019963 3027.61235157641
 -635656.701902629 485737.109829857 132.137846832841
 -565684.741117622 565684.741117621 -1243.9185578838
 -496830.961748982 627021.828024563 -1619.45309170177
 -430890.831891759 674040.642992781 -1517.42726553602
 -369358.675012642 709628.457938121 -1273.13678341614
 -314737.56029172 735485.650302516 -1061.29199640767
 -273398.12224105 751832.78549074 -964.06239610024
 -333904.890557824 -726984.721101875 -859.852310816935
 -380404.361551283 -703769.60124629 -932.777786734179
 -439443.566013095 -668496.910959616 -1110.10231349894
 -502438.077464894 -622538.48188861 -1347.91735868323
 -565684.343389893 -565684.343389892 -1564.38073759867
 -627021.828024564 -496830.961748981 -1619.45309170177
 -684491.759536806 -414088.50997912 -1317.96414229966
 -735266.205673753 -315251.260464037 -499.569772908649
 -774803.978069827 -199194.022792972 732.700978583163
 -797064.349486004 -68449.1689247969 1770.32538185696
 -797064.349486004 68449.168924797 1770.32538185696
 -774803.978069827 199194.022792972 732.700978583161
 -735266.205673753 315251.260464037 -499.569772908649
 -684491.759536806 414088.50997912 -1317.96414229966
 -627021.828024564 496830.961748981 -1619.45309170177
 -565684.343389893 565684.343389892 -1564.38073759867
 -502438.077464894 622538.481888611 -1347.91735868323
 -439443.566013095 668496.910959616 -1110.10231349894
 -380404.361551283 703769.60124629 -932.777786734179
 -333904.890557824 726984.721101875 -859.852310816934
 -395305.603275297 -695509.08961906 -765.686894571097
 -445012.611701253 -664803.065649025 -811.991680061684
 -505201.937873722 -620298.404454532 -944.139713170691
 -565684.854129831 -565684.85412983 -1136.49294958185
 -622538.481888611 -502438.077464893 -1347.91735868322
 -674040.642992782 -430890.831891758 -1517.42726553603
 -719090.094358658 -350580.915647024 -1567.73063709508
 -756292.524776228 -260805.567530337 -1439.76136111895
 -783511.795609373 -161579.423792422 -1164.45175316146
 -798117.06998079 -54847.988345135 -916.94044019154
 -798117.06998079 54847.9883451351 -916.940440191542
 -783511.795609373 161579.423792422 -1164.45175316146
 -756292.524776228 260805.567530337 -1439.76136111895
 -719090.094358658 350580.915647024 -1567.73063709509
 -674040.642992782 430890.831891758 -1517.42726553603
 -622538.481888611 502438.077464893 -1347.91735868322
 -565684.854129831 565684.85412983 -1136.49294958185
 -505201.937873722 620298.404454532 -944.139713170693
 -445012.611701253 664803.065649025 -811.991680061686
 -395305.603275297 695509.08961906 -765.686894571098
 -457096.985661047 -656553.014243432 -696.553981537484
 -507746.548113474 -618217.541304778 -717.287896485583
 -565685.138382569 -565685.138382568 -805.249147019436
 -620298.404454533 -505201.937873721 -944.139713170696
 -668496.910959616 -439443.566013094 -1110.10231349894
 -709628.457938121 -369358.675012643 -1273.13678341613
 -743656.245369593 -294912.586401742 -1398.25056231493
 -770356.274090597 -215752.375578907 -1457.189524841
 -789048.022895216 -131913.280621666 -1450.50362994057
 -798763.549590424 -44438.4325270688 -1420.40847756497
 -798763.549590424 44438.4325270688 -1420.40847756498
 -789048.022895216 131913.280621666 -1450.50362994057
 -770356.274090597 215752.375578907 -1457.189524841
 -743656.245369593 294912.586401742 -1398.25056231493
 -709628.457938121 369358.675012643 -1273.13678341613
 -668496.910959616 439443.566013094 -1110.10231349894
 -620298.404454533 505201.937873721 -944.139713170697
 -565685.138382569 565685.138382568 -805.249147019437
 -507746.548113474 618217.541304778 -717.287896485582
 -457096.985661047 656553.014243432 -696.553981537482
 -516591.183199854 -610846.219326869 -667.663272460198
 -565685.229187902 -565685.2291879 -665.550347131376
 -618217.541304779 -507746.548113473 -717.287896485644
 -664803.065649026 -445012.611701251 -811.991680061761
 -703769.60124629 -380404.361551282 -932.777786734219
 -735485.650302516 -314737.560291719 -1061.29199640759
 -760645.608401225 -247824.273913345 -1177.99798509805
 -779673.245290204 -179187.132077255 -1265.81063718598
 -792593.970669703 -108595.869946276 -1317.07579318175
 -799170.056529081 -36406.4851638742 -1337.3800201718
 -799170.056529081 36406.4851638742 -1337.3800201718
 -792593.970669703 108595.869946276 -1317.07579318176
 -779673.245290204 179187.132077255 -1265.81063718598
 -760645.608401225 247824.273913345 -1177.99798509805
 -735485.650302516 314737.560291719 -1061.29199640759
 -703769.60124629 380404.361551282 -932.777786734221
 -664803.065649026 445012.611701251 -811.991680061764
 -618217.541304779 507746.548113473 -717.287896485647
 -565685.229187901 565685.2291879 -665.550347131379
 -516591.183199854 610846.219326869 -667.6632724602
 -565685.215839894 -565685.215839892 -687.866519139892
 -610846.219326871 -516591.183199852 -667.663272460245
 -656553.014243433 -457096.985661045 -696.553981537604
 -695509.08961906 -395305.603275296 -765.686894571238
 -726984.721101876 -333904.890557824 -859.852310817013
 -751832.78549074 -273398.12224105 -964.062396100154
 -771023.083842118 -213359.491683385 -1063.71575060987
 -785203.804792775 -153145.917196887 -1145.85552048625
 -794654.184446615 -92321.6250385108 -1201.95329963505
 -799403.523067049 -30862.5291374504 -1229.47274472038
 -799403.523067049 30862.5291374504 -1229.47274472038
 -794654.184446615 92321.6250385108 -1201.95329963505
 -785203.804792775 153145.917196887 -1145.85552048626
 -771023.083842118 213359.491683385 -1063.71575060987
 -751832.78549074 273398.12224105 -964.062396100156
 -726984.721101875 333904.890557824 -859.852310817015
 -695509.089619061 395305.603275296 -765.68689457124
 -656553.014243433 457096.985661045 -696.553981537607
 -610846.219326871 516591.183199852 -667.663272460247
 -565685.215839894 565685.215839892 -687.866519139893
# End: Data Text
# End: Segment
