# OOMMF OVF 2.0
#
# Segment count: 1
#
# Begin: Segment
# Begin: Header
#
# Title: Oxs_MinDriver::Magnetization
# Desc: Oxs vector field output
# Desc:  MIF source file: C:/Users/Victor H. González/Documents/GitHub/Intro-to-magnetism-in-python/vortex_dynamics/drive-1/vortex_dynamics.mif
# Desc:  Iteration: 442, State id: 930
# Desc:  Stage: 0, Stage iteration: 442
# Desc:  Stage simulation time: -1 s
# Desc:  Total simulation time: -2 s
# meshunit: m
# meshtype: rectangular
# xbase: -4.7499999999999995e-08
# ybase: -4.7499999999999995e-08
# zbase: 2.5000000000000001e-09
# xnodes: 20
# ynodes: 20
# znodes: 1
# xstepsize: 5.0000000000000001e-09
# ystepsize: 5.0000000000000001e-09
# zstepsize: 5.0000000000000001e-09
# xmin: -4.9999999999999998e-08
# ymin: -4.9999999999999998e-08
# zmin: 0
# xmax: 4.9999999999999998e-08
# ymax: 4.9999999999999998e-08
# zmax: 5.0000000000000001e-09
# valuedim: 3
# valuelabels: Magnetization_x Magnetization_y Magnetization_z
# valueunits: A/m A/m A/m
#
# End: Header
#
# Begin: Data Text
 700636.995815768 -386144.665226010 -312.428789253619
 721035.769483133 -346565.055198801 -285.728750084969
 741624.958425045 -299987.241130364 -276.043554641888
 758798.371957953 -253426.422949418 -280.829171301301
 772189.185732537 -209102.307255542 -294.173640703614
 782288.999413327 -167403.179309774 -311.374171764719
 789695.080086123 -127990.516247873 -328.996011123051
 794887.480698381 -90298.2522524514 -344.483864716692
 798192.027822634 -53752.7676973857 -355.928731353726
 799800.771121865 -17849.2428298864 -361.998991158707
 799800.771121865 17849.2428298866 -361.998991158704
 798192.027822634 53752.7676973858 -355.928731353718
 794887.480698381 90298.2522524516 -344.483864716682
 789695.080086123 127990.516247873 -328.996011123044
 782288.999413327 167403.179309774 -311.374171764711
 772189.185732537 209102.307255542 -294.173640703604
 758798.371957952 253426.422949418 -280.829171301300
 741624.958425045 299987.241130364 -276.043554641890
 721035.769483133 346565.055198801 -285.728750084967
 700636.995815768 386144.665226011 -312.428789253627
 664975.566789175 -444755.436315775 -312.155377366513
 693636.666110613 -398582.602896291 -289.992022124031
 721724.655578746 -345128.150316186 -285.287693497122
 744767.216167737 -292098.795863978 -295.256793303817
 762655.786448698 -241569.975086753 -313.899512036418
 776163.219330576 -193831.225145929 -336.328447124761
 786099.082320929 -148486.039789445 -358.834001021873
 793089.813246978 -104920.945888136 -378.467717194127
 797552.782893066 -62525.2278501402 -392.914512494304
 799730.132945760 -20773.8778356954 -400.572371955470
 799730.132945760 20773.8778356955 -400.572371955473
 797552.782893066 62525.2278501404 -392.914512494303
 793089.813246977 104920.945888136 -378.467717194128
 786099.082320929 148486.039789445 -358.834001021865
 776163.219330576 193831.225145929 -336.328447124763
 762655.786448698 241569.975086753 -313.899512036425
 744767.216167736 292098.795863978 -295.256793303797
 721724.655578746 345128.150316186 -285.287693497114
 693636.666110612 398582.602896291 -289.992022124033
 664975.566789175 444755.436315775 -312.155377366523
 619218.501473992 -506525.751345679 -332.649964971158
 655518.768410494 -458579.375959593 -316.553469646652
 692451.646631389 -400637.759491859 -320.541451572484
 723420.774989911 -341558.583912217 -340.688829859480
 747829.017009001 -284168.302459036 -370.400998948105
 766485.108443623 -229129.690768493 -404.156532243724
 780350.756795182 -176217.209915263 -437.377259339282
 790191.260169219 -124890.172096614 -466.117860003987
 796516.056058430 -74578.3823651766 -487.160053899875
 799615.212321882 -24804.5153660407 -498.237781779861
 799615.212321882 24804.5153660408 -498.237781779866
 796516.056058430 74578.3823651765 -487.160053899877
 790191.260169219 124890.172096614 -466.117860003987
 780350.756795182 176217.209915263 -437.377259339289
 766485.108443623 229129.690768493 -404.156532243722
 747829.017009001 284168.302459036 -370.400998948105
 723420.774989911 341558.583912217 -340.688829859485
 692451.646631388 400637.759491859 -320.541451572469
 655518.768410494 458579.375959593 -316.553469646652
 619218.501473992 506525.751345679 -332.649964971154
 569823.150746958 -561517.086248361 -372.456656482964
 611929.000724499 -515308.418100229 -363.740782863528
 656877.971220647 -456630.251011093 -380.508336174749
 696180.505566681 -394122.480742014 -416.944457725956
 728196.751541806 -331254.093925440 -465.082355916953
 753308.792237855 -269305.765377559 -517.949372090430
 772358.841979230 -208474.207656064 -569.173680585302
 786098.880322469 -148486.277813539 -612.908508900199
 795037.168548055 -88969.0133166729 -644.435062773863
 799450.388120242 -29641.8671100975 -660.793933700779
 799450.388120242 29641.8671100975 -660.793933700770
 795037.168548055 88969.0133166731 -644.435062773877
 786098.880322469 148486.277813539 -612.908508900193
 772358.841979230 208474.207656064 -569.173680585315
 753308.792237855 269305.765377559 -517.949372090424
 728196.751541806 331254.093925440 -465.082355916952
 696180.505566681 394122.480742014 -416.944457725977
 656877.971220647 456630.251011093 -380.508336174761
 611929.000724499 515308.418100229 -363.740782863537
 569823.150746958 561517.086248361 -372.456656482944
 519977.730789014 -607966.261242828 -429.737041803831
 565755.983420782 -565614.693964513 -430.342904975716
 616929.026107413 -509311.653483192 -465.158442936546
 663876.788573886 -446393.697308053 -525.924397071835
 703816.939456728 -380317.437149480 -602.273871534704
 736322.441858934 -312775.947494075 -684.312852312382
 761746.921718101 -244419.815948065 -762.118699812350
 780541.984702410 -175366.835673619 -826.476039917568
 792998.121008468 -105608.814596374 -870.836716778308
 799221.294515348 -35277.8294869750 -892.826914522848
 799221.294515348 35277.8294869753 -892.826914522837
 792998.121008468 105608.814596374 -870.836716778312
 780541.984702410 175366.835673619 -826.476039917559
 761746.921718101 244419.815948065 -762.118699812336
 736322.441858935 312775.947494075 -684.312852312386
 703816.939456727 380317.437149480 -602.273871534671
 663876.788573886 446393.697308053 -525.924397071833
 616929.026107413 509311.653483192 -465.158442936580
 565755.983420781 565614.693964513 -430.342904975710
 519977.730789014 607966.261242828 -429.737041803820
 471097.202402875 -646581.141148068 -503.785516808367
 518547.505972482 -609186.520799326 -516.648944490520
 573825.185019751 -557426.519739037 -576.306058506606
 627043.522887726 -496805.766415285 -671.461890705636
 674561.314242018 -430077.217207209 -787.760994537480
 715008.237845380 -358834.770517515 -909.549826275218
 747924.199842700 -283916.099579626 -1019.65148473522
 773086.499411827 -205757.256184177 -1102.70337149713
 790204.592669169 -124801.343990149 -1151.63484036631
 798903.926051467 -41846.6836498316 -1171.32705205559
 798903.926051467 41846.6836498317 -1171.32705205562
 790204.592669169 124801.343990149 -1151.63484036628
 773086.499411827 205757.256184177 -1102.70337149717
 747924.199842699 283916.099579625 -1019.65148473519
 715008.237845380 358834.770517515 -909.549826275235
 674561.314242018 430077.217207209 -787.760994537473
 627043.522887726 496805.766415285 -671.461890705601
 573825.185019751 557426.519739037 -576.306058506604
 518547.505972482 609186.520799325 -516.648944490525
 471097.202402875 646581.141148069 -503.785516808379
 423420.436251848 -678759.737414309 -594.162901420233
 470827.107815268 -646777.741031651 -623.098952533536
 528087.849697533 -600934.864327448 -715.428254003376
 585811.728984018 -544815.460629419 -855.595646513524
 640012.702064348 -479981.975592580 -1021.91121732100
 688541.590120659 -407319.372409914 -1186.39525800070
 729973.685730246 -327317.410392680 -1315.67291900323
 763034.979354468 -240365.783674516 -1382.14328585616
 786332.307757299 -147239.885408903 -1384.89055657448
 798457.458955698 -49636.9965378081 -1361.91509102605
 798457.458955698 49636.9965378081 -1361.91509102607
 786332.307757299 147239.885408903 -1384.89055657445
 763034.979354468 240365.783674516 -1382.14328585618
 729973.685730246 327317.410392680 -1315.67291900323
 688541.590120659 407319.372409914 -1186.39525800067
 640012.702064348 479981.975592580 -1021.91121732106
 585811.728984018 544815.460629419 -855.595646513491
 528087.849697533 600934.864327449 -715.428254003335
 470827.107815268 646777.741031651 -623.098952533553
 423420.436251848 678759.737414309 -594.162901420251
 376461.547034133 -705886.828430245 -699.323499394793
 422356.332915823 -679422.231049921 -748.332176560324
 479565.898229624 -640324.741199133 -880.376895084945
 539784.761606010 -590450.049933045 -1072.22759155696
 599284.565206748 -529958.823955742 -1286.39667512151
 655578.458478929 -458491.806093493 -1465.78426742825
 706411.614837213 -375473.393532046 -1536.61075455903
 749207.178829762 -280511.189016936 -1440.84220317289
 780804.327981086 -174192.858981384 -1203.86290652031
 797807.107638491 -59184.8686391514 -985.051100871552
 797807.107638491 59184.8686391516 -985.051100871514
 780804.327981086 174192.858981384 -1203.86290652033
 749207.178829762 280511.189016936 -1440.84220317282
 706411.614837213 375473.393532046 -1536.61075455908
 655578.458478928 458491.806093493 -1465.78426742820
 599284.565206748 529958.823955742 -1286.39667512151
 539784.761606010 590450.049933045 -1072.22759155703
 479565.898229624 640324.741199133 -880.376895084915
 422356.332915823 679422.231049921 -748.332176560293
 376461.547034133 705886.828430245 -699.323499394827
 329353.738527705 -729057.919835381 -815.133810869376
 372390.645812348 -708042.668203733 -887.081957945388
 427530.817677536 -676177.693870194 -1061.24849331026
 487970.712763586 -633942.346427126 -1298.03369305509
 550829.195889616 -580159.355487224 -1522.89075379518
 613947.916512802 -512898.992560301 -1606.00131322631
 674768.177243652 -429751.145230525 -1363.87401633985
 729500.648311924 -328372.334823668 -643.300035624260
 772513.721163920 -207899.817939850 465.095742672698
 796798.068795710 -71490.3239499605 1403.97469931342
 796798.068795710 71490.3239499607 1403.97469931347
 772513.721163920 207899.817939850 465.095742672665
 729500.648311924 328372.334823668 -643.300035624217
 674768.177243652 429751.145230525 -1363.87401633982
 613947.916512802 512898.992560301 -1606.00131322634
 550829.195889616 580159.355487224 -1522.89075379514
 487970.712763586 633942.346427126 -1298.03369305510
 427530.817677536 676177.693870194 -1061.24849331030
 372390.645812348 708042.668203733 -887.081957945381
 329353.738527706 729057.919835382 -815.133810869380
 281104.139476408 -748985.707663282 -934.069247886917
 319920.572386839 -733246.049683330 -1028.58517849448
 370837.158895682 -708857.017849430 -1236.86207452672
 428805.638665497 -675369.174885873 -1483.86746407788
 492286.141210660 -630596.356883820 -1609.30319449684
 560260.636906190 -571057.195649618 -1303.08490330392
 630889.463329860 -491913.080571136 -78.8820412328402
 699993.099419882 -387302.434775029 2546.52348945257
 759137.353772274 -252327.679745269 6420.29142639502
 795027.552161605 -88516.7731193935 9796.53920808398
 795027.552161606 88516.7731193937 9796.53920808397
 759137.353772273 252327.679745269 6420.29142639503
 699993.099419881 387302.434775030 2546.52348945253
 630889.463329860 491913.080571136 -78.8820412328007
 560260.636906190 571057.195649618 -1303.08490330390
 492286.141210660 630596.356883820 -1609.30319449683
 428805.638665497 675369.174885873 -1483.86746407783
 370837.158895681 708857.017849430 -1236.86207452674
 319920.572386840 733246.049683330 -1028.58517849451
 281104.139476408 748985.707663282 -934.069247886926
 230794.803103026 -765984.768493800 -1045.60802172555
 263909.674821783 -755215.429247436 -1157.13528677304
 308161.202054665 -738264.708384106 -1376.19139477512
 360324.322762446 -714257.626894403 -1557.19265363146
 420478.251097421 -680585.186372613 -1358.10316598766
 489521.569861967 -632746.892362024 -53.3486393471897
 567851.260948468 -563499.502295880 3640.92728990332
 653059.752480282 -461935.829614882 11324.7078727862
 735212.564533047 -314517.210513227 23268.2024170317
 791019.226623043 -114417.192858105 34601.8654288086
 791019.226623043 114417.192858105 34601.8654288086
 735212.564533046 314517.210513227 23268.2024170317
 653059.752480282 461935.829614882 11324.7078727861
 567851.260948467 563499.502295880 3640.92728990327
 489521.569861967 632746.892362024 -53.3486393471648
 420478.251097420 680585.186372614 -1358.10316598764
 360324.322762446 714257.626894403 -1557.19265363147
 308161.202054665 738264.708384106 -1376.19139477508
 263909.674821783 755215.429247436 -1157.13528677304
 230794.803103026 765984.768493800 -1045.60802172558
 177759.892660990 -780000.079415779 -1138.71529827449
 203551.654222993 -773669.919602271 -1256.80774094288
 238355.191998027 -763665.305596398 -1450.33649322932
 280590.883240966 -749177.310349029 -1453.92580625743
 331809.837269887 -727943.595967562 -594.121827724966
 395119.325453946 -695610.141845324 2692.43658154924
 474635.151667925 -643884.905808257 11562.9093855888
 573529.025374054 -556868.895822425 31007.9009125347
 686149.218162629 -406226.104426081 64649.8453023876
 777551.414166539 -158531.773759310 101397.608632269
 777551.414166539 158531.773759310 101397.608632269
 686149.218162629 406226.104426081 64649.8453023875
 573529.025374053 556868.895822426 31007.9009125347
 474635.151667924 643884.905808257 11562.9093855888
 395119.325453945 695610.141845325 2692.43658154917
 331809.837269887 727943.595967562 -594.121827724944
 280590.883240966 749177.310349029 -1453.92580625739
 238355.191998027 763665.305596398 -1450.33649322934
 203551.654222993 773669.919602271 -1256.80774094290
 177759.892660990 780000.079415780 -1138.71529827450
 121745.384639301 -790681.103407564 -1205.83300071794
 138548.141838546 -787910.318971360 -1319.71646040285
 160940.016012324 -783642.897922313 -1455.94707081316
 188532.555389131 -777466.435991325 -1190.15351592647
 223547.080027591 -768131.701045375 626.785669782740
 270304.772954030 -752919.432388276 6903.48103393975
 336176.474514044 -725528.989285554 24352.8989976519
 432651.170546567 -669635.728830694 66339.6962464443
 570020.887570921 -540637.659721802 150953.995056085
 715694.502099634 -240378.576146283 264574.223601323
 715694.502099634 240378.576146284 264574.223601323
 570020.887570921 540637.659721802 150953.995056085
 432651.170546567 669635.728830694 66339.6962464442
 336176.474514044 725528.989285554 24352.8989976519
 270304.772954030 752919.432388276 6903.48103393970
 223547.080027590 768131.701045375 626.785669782670
 188532.555389131 777466.435991325 -1190.15351592647
 160940.016012324 783642.897922313 -1455.94707081312
 138548.141838546 787910.318971360 -1319.71646040285
 121745.384639302 790681.103407564 -1205.83300071797
 63023.5267307016 -797512.685077204 -1245.88096298081
 69349.5325706200 -796987.336484033 -1351.96757430260
 76647.8156249684 -796318.440485369 -1433.07462145177
 85153.0764030604 -795454.644072145 -928.871978446209
 96435.2481798098 -794164.461523759 1746.70008212104
 113322.819670606 -791858.289660516 10880.6083389267
 141157.192019672 -786555.246952052 37489.8737436660
 191087.398965861 -769288.831797115 108075.433048830
 284656.157267256 -694767.136794364 276169.328058711
 426020.140403764 -371362.918505105 566212.347736896
 426020.140403764 371362.918505106 566212.347736896
 284656.157267256 694767.136794365 276169.328058711
 191087.398965861 769288.831797115 108075.433048830
 141157.192019672 786555.246952053 37489.8737436659
 113322.819670606 791858.289660516 10880.6083389266
 96435.2481798100 794164.461523759 1746.70008212105
 85153.0764030602 795454.644072145 -928.871978446243
 76647.8156249686 796318.440485369 -1433.07462145180
 69349.5325706196 796987.336484033 -1351.96757430260
 63023.5267307015 797512.685077204 -1245.88096298084
 2413.61515996606 -799995.361580384 -1263.29399999302
 -2772.06570621014 -799994.027380148 -1368.14027508329
 -12302.7415195395 -799904.096418383 -1441.90297613501
 -25523.2225102287 -799592.236487521 -905.793341302251
 -42305.5012518017 -798878.401949118 1882.40884405509
 -63557.1692158962 -797390.089175284 11381.2093511211
 -92414.9346715304 -793679.057423574 39153.9737049043
 -137173.677759943 -779933.779304393 113519.522681242
 -215936.589984398 -712082.695750612 293784.995393658
 -335394.100678254 -388619.349112826 613584.385985619
 -335394.100678254 388619.349112827 613584.385985619
 -215936.589984398 712082.695750612 293784.995393658
 -137173.677759943 779933.779304393 113519.522681242
 -92414.9346715302 793679.057423574 39153.9737049042
 -63557.1692158959 797390.089175284 11381.2093511210
 -42305.5012518017 798878.401949118 1882.40884405502
 -25523.2225102287 799592.236487521 -905.793341302242
 -12302.7415195396 799904.096418383 -1441.90297613498
 -2772.06570621006 799994.027380148 -1368.14027508330
 2413.61515996619 799995.361580384 -1263.29399999306
 -58796.7991112278 -797835.407310063 -1264.61719855754
 -75928.9450711912 -796387.406593327 -1376.19763556169
 -102628.670386950 -793388.374787232 -1497.58708649002
 -137185.796164843 -788148.908917671 -1163.91687974954
 -179953.196417521 -779497.315005903 884.871575165019
 -233544.315748910 -765111.385234104 7849.88958673958
 -304095.948842295 -739449.734554167 27198.2346022137
 -402940.021589966 -687125.338025326 74149.2336080407
 -542649.577283179 -562536.969631793 170539.127685893
 -694490.608534993 -255687.249142034 303820.383257731
 -694490.608534993 255687.249142034 303820.383257731
 -542649.577283179 562536.969631794 170539.127685893
 -402940.021589966 687125.338025326 74149.2336080405
 -304095.948842295 739449.734554167 27198.2346022137
 -233544.315748910 765111.385234104 7849.88958673955
 -179953.196417521 779497.315005903 884.871575165007
 -137185.796164843 788148.908917672 -1163.91687974954
 -102628.670386950 793388.374787232 -1497.58708649003
 -75928.9450711913 796387.406593327 -1376.19763556168
 -58796.7991112277 797835.407310063 -1264.61719855757
 -118901.355253639 -791113.696569762 -1259.68987278878
 -147971.351375518 -786195.003549795 -1376.79535203778
 -190969.988429000 -776870.665732238 -1559.56538072457
 -243839.044204192 -761931.931515415 -1500.75273624681
 -305650.383455447 -739308.906862263 -428.167799670327
 -377655.298930029 -705240.850349190 3437.75927352702
 -462975.324957002 -652277.789021976 13694.3210697182
 -565002.471499384 -565215.216338729 36110.4751941991
 -679815.102505005 -414970.133812818 75174.5598555884
 -774057.096112787 -163654.949283150 118543.956119950
 -774057.096112787 163654.949283151 118543.956119950
 -679815.102505005 414970.133812819 75174.5598555882
 -565002.471499384 565215.216338729 36110.4751941990
 -462975.324957002 652277.789021976 13694.3210697183
 -377655.298930029 705240.850349190 3437.75927352699
 -305650.383455447 739308.906862263 -428.167799670356
 -243839.044204192 761931.931515415 -1500.75273624680
 -190969.988429000 776870.665732238 -1559.56538072451
 -147971.351375518 786195.003549795 -1376.79535203778
 -118901.355253639 791113.696569762 -1259.68987278880
 -175521.989615071 -780506.514961013 -1269.35612909863
 -216556.758634933 -770130.676888599 -1382.31857385698
 -274319.013772670 -751496.186777411 -1599.98181231960
 -341036.471607828 -723665.044771219 -1740.11768369432
 -413509.351060893 -684841.646465099 -1391.34904706192
 -490736.524475749 -631805.016530510 290.916387513829
 -572517.295892435 -558749.648414895 4772.45222558744
 -657192.402458961 -455966.904289040 13868.2494673579
 -736891.849683128 -310180.904310247 27896.3881507397
 -790887.426492854 -113115.352419231 41255.2501214512
 -790887.426492854 113115.352419231 41255.2501214512
 -736891.849683127 310180.904310247 27896.3881507397
 -657192.402458961 455966.904289040 13868.2494673580
 -572517.295892435 558749.648414895 4772.45222558746
 -490736.524475748 631805.016530511 290.916387513816
 -413509.351060893 684841.646465099 -1391.34904706186
 -341036.471607828 723665.044771219 -1740.11768369430
 -274319.013772670 751496.186777411 -1599.98181231957
 -216556.758634933 770130.676888599 -1382.31857385694
 -175521.989615071 780506.514961013 -1269.35612909866
 -224770.586184162 -767773.676109671 -1328.85645218268
 -278484.981944547 -749962.715022359 -1428.60338731157
 -348992.150423661 -719862.329536052 -1644.82752793062
 -424493.705079623 -678086.729258697 -1865.99866487352
 -500156.260038177 -624371.839958856 -1876.43572110446
 -573897.301979964 -557351.066439460 -1294.41836923129
 -644443.238212368 -474017.636423675 439.410593015592
 -709452.399530092 -369678.970142588 3840.81180349511
 -763243.149438720 -239551.489902099 8659.01383225404
 -795485.253082549 -83902.7573179666 12788.2540886315
 -795485.253082549 83902.7573179669 12788.2540886315
 -763243.149438720 239551.489902099 8659.01383225409
 -709452.399530092 369678.970142588 3840.81180349505
 -644443.238212368 474017.636423675 439.410593015605
 -573897.301979964 557351.066439460 -1294.41836923127
 -500156.260038177 624371.839958856 -1876.43572110452
 -424493.705079623 678086.729258697 -1865.99866487347
 -348992.150423661 719862.329536053 -1644.82752793060
 -278484.981944547 749962.715022358 -1428.60338731158
 -224770.586184162 767773.676109671 -1328.85645218265
 -259465.537409216 -756753.257848683 -1463.43170416626
 -326588.779897836 -730299.505448078 -1549.57643764067
 -406154.561068070 -689228.134392012 -1746.79309336664
 -485344.977667168 -635953.122532816 -1969.41463793970
 -559405.713488042 -571892.426528928 -2073.69134405798
 -626619.530041980 -497337.468393633 -1845.83362762120
 -686240.655068688 -411184.513411750 -1029.20417805458
 -736933.965278731 -311332.696405949 531.946583202225
 -775573.160500396 -196162.121444169 2587.43540042886
 -797148.817323676 -67350.3199810526 4206.83228978535
 -797148.817323676 67350.3199810528 4206.83228978541
 -775573.160500396 196162.121444169 2587.43540042883
 -736933.965278731 311332.696405949 531.946583202288
 -686240.655068688 411184.513411750 -1029.20417805461
 -626619.530041980 497337.468393633 -1845.83362762121
 -559405.713488041 571892.426528928 -2073.69134405794
 -485344.977667169 635953.122532817 -1969.41463793972
 -406154.561068070 689228.134392012 -1746.79309336666
 -326588.779897837 730299.505448078 -1549.57643764070
 -259465.537409216 756753.257848683 -1463.43170416623
# End: Data Text
# End: Segment
