# OOMMF OVF 2.0
#
# Segment count: 1
#
# Begin: Segment
# Begin: Header
#
# Title: Oxs_TimeDriver::Magnetization
# Desc: Oxs vector field output
# Desc:  MIF source file: C:/Users/Victor H. González/Documents/GitHub/Intro-to-magnetism-in-python/domain_wall_conversion_thin_film/drive-12/domain_wall_conversion_thin_film.mif
# Desc:  Iteration: 1009, State id: 7099
# Desc:  Stage: 83, Stage iteration: 11
# Desc:  Stage simulation time: 2e-12 s
# Desc:  Total simulation time: 1.68e-10 s
# meshunit: m
# meshtype: rectangular
# xbase: 1.0000000000000001e-09
# ybase: 1.0000000000000001e-09
# zbase: 1.0000000000000001e-09
# xnodes: 75
# ynodes: 25
# znodes: 1
# xstepsize: 2.0000000000000001e-09
# ystepsize: 2.0000000000000001e-09
# zstepsize: 2.0000000000000001e-09
# xmin: 0
# ymin: 0
# zmin: 0
# xmax: 1.5000000000000002e-07
# ymax: 5.0000000000000004e-08
# zmax: 2.0000000000000001e-09
# valuedim: 3
# valuelabels: Magnetization_x Magnetization_y Magnetization_z
# valueunits: A/m A/m A/m
#
# End: Header
#
# Begin: Data Text
 0.000000000000000 -0.000000000000000 -0.000000000000000
 -0.000000000000000 0.000000000000000 0.000000000000000
 0.000000000000000 0.000000000000000 -0.000000000000000
 0.000000000000000 0.000000000000000 0.000000000000000
 0.000000000000000 0.000000000000000 0.000000000000000
 0.000000000000000 -0.000000000000000 0.000000000000000
 -0.000000000000000 -0.000000000000000 0.000000000000000
 -0.000000000000000 -0.000000000000000 -0.000000000000000
 -0.000000000000000 0.000000000000000 -0.000000000000000
 -0.000000000000000 -0.000000000000000 -0.000000000000000
 0.000000000000000 -0.000000000000000 -0.000000000000000
 0.000000000000000 0.000000000000000 0.000000000000000
 0.000000000000000 0.000000000000000 -0.000000000000000
 0.000000000000000 0.000000000000000 0.000000000000000
 0.000000000000000 0.000000000000000 -0.000000000000000
 -0.000000000000000 0.000000000000000 -0.000000000000000
 0.000000000000000 -0.000000000000000 -0.000000000000000
 -0.000000000000000 -0.000000000000000 0.000000000000000
 0.000000000000000 -0.000000000000000 -0.000000000000000
 -0.000000000000000 -0.000000000000000 -0.000000000000000
 0.000000000000000 -0.000000000000000 0.000000000000000
 0.000000000000000 -0.000000000000000 0.000000000000000
 0.000000000000000 0.000000000000000 -0.000000000000000
 -0.000000000000000 -0.000000000000000 0.000000000000000
 0.000000000000000 -0.000000000000000 0.000000000000000
 243644.063845677 279554.913779193 445967.061939189
 175857.929527859 278576.746693141 477356.245192247
 124125.629734444 276964.850263746 494250.240021599
 86466.0418371026 275207.194903946 503174.545741461
 59750.5754681876 273581.842366753 507920.116020653
 41071.4743246253 272167.817398563 510526.995534325
 28114.7576028308 270938.459432815 512056.551178780
 19158.2709123049 269825.913311299 513056.465860605
 12964.1126856009 268748.767718291 513815.172637180
 8657.51090927624 267626.292183232 514491.219786218
 5628.44553835867 266378.224716557 515180.513992597
 3453.66619036819 264929.439538561 515946.183487803
 1845.54101131745 263206.179891627 516835.661352071
 612.147363047247 261145.226247960 517882.994588071
 -362.341183628292 258693.379139812 519112.323392628
 -1138.21907737151 255826.334309810 520530.105883356
 -1723.96984363588 252552.201939889 522124.901937545
 -2095.67565758590 248939.683270495 523855.554744554
 -2198.13915578504 245117.041933521 525654.643219303
 -1980.73494551306 241296.452785202 527420.229572544
 -1399.30045766456 237744.456665201 529032.716647276
 -471.691188532487 234778.624664499 530357.214439541
 746.495976387821 232690.796763655 531276.233089014
 2107.00826552430 231721.086651825 531696.246476375
 3462.77518541930 231971.518349550 531579.931771902
 4610.13285381195 233416.512097304 530938.300139856
 5449.08781449118 235876.441078943 529842.063247079
 5859.64660904438 239089.765720152 528395.447055991
 5893.53645760612 242745.664562832 526725.553361494
 5540.95137678992 246549.279123088 524959.761145296
 4963.22147467208 250265.047880538 523204.331253044
 4174.85457072744 253707.226753674 521550.777664335
 3347.06615725331 256792.277105072 520044.732275340
 2443.18187615076 259447.906245904 518730.001838082
 1586.81557232709 261708.231508937 517596.641775045
 670.300648128062 263558.119912756 516659.141141521
 -246.872622601759 265091.346790158 515874.516632571
 -1342.96379145375 266302.531671482 515248.637139017
 -2642.18131577556 267306.341018586 514723.555832789
 -4418.86218627445 268086.729348807 514305.336550223
 -6844.69344798281 268763.685509256 513925.317067650
 -10383.4245518371 269312.860658379 513578.394773941
 -15510.2073981551 269862.364415989 513160.537978397
 -23101.2195840898 270401.109478924 512591.039373783
 -34264.6401880467 271084.472019847 511604.479517629
 -50738.7779647755 271950.580939779 509772.947435579
 -74848.2853992532 273195.390206956 506124.503400557
 -109809.091764737 274891.257777855 498775.259774493
 -159410.754762818 277136.370656004 483925.245596431
 -226940.287775533 279805.639167705 454540.328325563
 -0.000000000000000 -0.000000000000000 -0.000000000000000
 -0.000000000000000 -0.000000000000000 -0.000000000000000
 0.000000000000000 0.000000000000000 -0.000000000000000
 0.000000000000000 -0.000000000000000 0.000000000000000
 -0.000000000000000 -0.000000000000000 -0.000000000000000
 -0.000000000000000 -0.000000000000000 -0.000000000000000
 0.000000000000000 0.000000000000000 0.000000000000000
 0.000000000000000 0.000000000000000 -0.000000000000000
 0.000000000000000 0.000000000000000 -0.000000000000000
 0.000000000000000 0.000000000000000 -0.000000000000000
 -0.000000000000000 0.000000000000000 0.000000000000000
 -0.000000000000000 -0.000000000000000 0.000000000000000
 0.000000000000000 -0.000000000000000 -0.000000000000000
 -0.000000000000000 -0.000000000000000 -0.000000000000000
 -0.000000000000000 0.000000000000000 0.000000000000000
 -0.000000000000000 0.000000000000000 0.000000000000000
 -0.000000000000000 -0.000000000000000 -0.000000000000000
 0.000000000000000 0.000000000000000 -0.000000000000000
 0.000000000000000 -0.000000000000000 0.000000000000000
 -0.000000000000000 -0.000000000000000 -0.000000000000000
 -0.000000000000000 0.000000000000000 0.000000000000000
 0.000000000000000 -0.000000000000000 -0.000000000000000
 0.000000000000000 0.000000000000000 -0.000000000000000
 0.000000000000000 -0.000000000000000 0.000000000000000
 -0.000000000000000 0.000000000000000 0.000000000000000
 241606.040390043 211413.621250446 483043.271350318
 172037.294863091 208685.363711349 513082.437965724
 120429.317030465 205273.869609873 528922.884790368
 83430.8407505921 202137.100629326 537196.321060391
 57423.3821130380 199529.326928121 541563.110710387
 39342.3624600522 197426.552792047 543943.870972650
 26839.2539400502 195713.793236329 545321.708338288
 18203.3233528821 194253.086242161 546199.942790464
 12216.8971052843 192916.486614848 546839.991786722
 8028.23568435145 191582.771069515 547386.142737577
 5041.79340100752 190146.337711770 547922.394663790
 2848.69910094555 188501.369372524 548506.261275216
 1166.22216244868 186555.677942360 549177.219987623
 -186.946778840378 184213.960019971 549968.346347917
 -1323.75677150995 181406.375487042 550899.241786249
 -2285.23085984547 178073.481787943 551982.438854567
 -3067.76863517867 174216.567789160 553208.076860205
 -3604.37993606803 169880.845564435 554551.626772106
 -3813.98959882037 165225.839560809 555954.922115783
 -3577.89955759531 160484.112537863 557343.743355651
 -2840.54722471478 156025.040224379 558612.672712001
 -1561.60720776275 152241.620591567 559660.656418317
 134.090076076406 149574.923220839 560381.409723173
 2112.74098316722 148323.185987093 560710.057716264
 4051.29200428750 148674.526579598 560606.343327855
 5774.43625943098 150547.465218482 560091.168116562
 6964.13008170248 153722.561590178 559214.516040454
 7650.13173308815 157801.779687694 558068.162334909
 7670.91976273536 162376.458939992 556754.023400014
 7306.77623475524 167062.744877241 555370.732299729
 6473.23558596414 171540.318294985 554014.455064400
 5554.89160754194 175648.530300134 552735.684556942
 4405.39791782173 179219.449910410 551598.568927618
 3387.69802599039 182307.878575089 550592.735977814
 2246.71823242334 184821.976712100 549759.755876525
 1281.24023232754 186947.160132354 549043.821331153
 147.232563220909 188589.751049013 548483.257831854
 -934.777202696392 189999.093096474 547995.867515530
 -2382.66167986584 191045.688488218 547627.490027101
 -4094.54327310769 192009.021982342 547280.339673160
 -6600.01675707146 192726.447077941 547003.616419051
 -10023.1463158393 193496.901419711 546679.509108309
 -15142.1266617513 194153.134875041 546328.908459321
 -22541.2927511590 195021.339871004 545764.204685526
 -33564.5854905045 195984.397849176 544851.846285343
 -49723.9021636764 197421.680808791 543095.031739611
 -73536.4205495597 199335.062561780 539683.173432570
 -108176.277873894 202131.405164074 532767.104795094
 -157934.625002445 205785.103421822 518757.308801531
 -227336.412472509 209975.386633472 490538.981705076
 -0.000000000000000 0.000000000000000 -0.000000000000000
 -0.000000000000000 -0.000000000000000 0.000000000000000
 -0.000000000000000 -0.000000000000000 -0.000000000000000
 0.000000000000000 0.000000000000000 0.000000000000000
 0.000000000000000 -0.000000000000000 -0.000000000000000
 -0.000000000000000 0.000000000000000 0.000000000000000
 0.000000000000000 0.000000000000000 -0.000000000000000
 -0.000000000000000 0.000000000000000 0.000000000000000
 0.000000000000000 0.000000000000000 0.000000000000000
 0.000000000000000 -0.000000000000000 -0.000000000000000
 -0.000000000000000 0.000000000000000 0.000000000000000
 -0.000000000000000 0.000000000000000 0.000000000000000
 -0.000000000000000 0.000000000000000 -0.000000000000000
 -0.000000000000000 -0.000000000000000 0.000000000000000
 -0.000000000000000 0.000000000000000 0.000000000000000
 0.000000000000000 0.000000000000000 -0.000000000000000
 -0.000000000000000 0.000000000000000 -0.000000000000000
 -0.000000000000000 0.000000000000000 0.000000000000000
 0.000000000000000 -0.000000000000000 0.000000000000000
 0.000000000000000 0.000000000000000 -0.000000000000000
 -0.000000000000000 -0.000000000000000 0.000000000000000
 -0.000000000000000 0.000000000000000 -0.000000000000000
 -0.000000000000000 -0.000000000000000 -0.000000000000000
 -0.000000000000000 0.000000000000000 -0.000000000000000
 0.000000000000000 -0.000000000000000 0.000000000000000
 238544.483216562 160169.467790141 503827.620436560
 167458.605835210 157083.096931932 532618.546419482
 115909.363065282 152761.297021284 547383.782812549
 79609.3240715280 148640.658778806 554948.925648728
 54427.4024658288 145171.985746046 558894.222921809
 37075.1898131499 142385.370122315 561027.482994773
 25135.8788327608 140149.512531927 562251.102028594
 16892.2830027619 138297.075227941 563017.379623713
 11148.5185106699 136655.880100913 563560.893754049
 7070.92626214803 135074.589259260 564007.852195550
 4085.01105130228 133403.650358554 564434.919858546
 1787.40930446787 131511.247324058 564890.783245088
 -92.8156043891464 129253.858970389 565414.389033854
 -1740.02695475009 126506.188426322 566032.822896376
 -3248.87493326573 123130.115732337 566770.164538863
 -4652.54462859137 119033.317850030 567634.938204206
 -5891.11162935531 114141.111750462 568627.383628452
 -6852.50667432705 108498.233613781 569720.261580161
 -7331.03654428924 102235.455166189 570871.410748646
 -7134.94185506048 95703.3231339924 572005.215488317
 -6049.83884947301 89373.1755733479 573040.866725778
 -4053.52817291790 83928.4037174874 573881.165363340
 -1202.35605170014 80002.1086948523 574454.712700925
 2104.49833482161 78192.7065221545 574701.202133334
 5511.85855628652 78717.7545183098 574606.939166985
 8395.94289887445 81537.3664977644 574178.688221226
 10556.7062314994 86180.0189628957 573464.523998736
 11595.4502811536 92057.0523273079 572530.387533784
 11802.8954727646 98473.6346159618 571457.465559757
 11047.2653226289 104853.060846032 570336.561654704
 9935.74195711702 110808.540840646 569229.960831761
 8317.90930388294 116039.004018799 568212.778746780
 6827.29489872064 120552.017950801 567292.339990904
 5132.27371364255 124213.844680888 566519.708885861
 3779.37463638911 127279.599680067 565849.467466958
 2278.38573270544 129621.562444715 565325.622546727
 1082.61152500265 131614.246429338 564868.584795724
 -390.277781724501 133059.998064230 564530.676401557
 -1792.23829469883 134390.555616928 564212.696102160
 -3777.65329369579 135333.848422151 563977.374374932
 -6173.05704838273 136355.433613351 563710.110864434
 -9771.67733101372 137142.063448891 563468.338733525
 -14741.3371578912 138187.198327076 563104.778169491
 -22222.4625288426 139193.238406716 562611.237481981
 -33070.9344870884 140685.695071136 561706.194103734
 -49238.0660084277 142456.318423304 560073.040055516
 -72935.2411234078 145045.585905179 556814.357404417
 -107752.353174968 148328.385752898 550261.865265254
 -158107.085577496 152524.682100369 536785.218537519
 -229352.691894747 156708.863587781 509155.845290673
 0.000000000000000 -0.000000000000000 0.000000000000000
 0.000000000000000 -0.000000000000000 0.000000000000000
 0.000000000000000 0.000000000000000 0.000000000000000
 -0.000000000000000 -0.000000000000000 -0.000000000000000
 0.000000000000000 0.000000000000000 -0.000000000000000
 -0.000000000000000 0.000000000000000 0.000000000000000
 0.000000000000000 0.000000000000000 -0.000000000000000
 -0.000000000000000 0.000000000000000 0.000000000000000
 -0.000000000000000 0.000000000000000 0.000000000000000
 -0.000000000000000 0.000000000000000 0.000000000000000
 -0.000000000000000 -0.000000000000000 -0.000000000000000
 -0.000000000000000 0.000000000000000 0.000000000000000
 0.000000000000000 0.000000000000000 -0.000000000000000
 -0.000000000000000 0.000000000000000 0.000000000000000
 -0.000000000000000 0.000000000000000 0.000000000000000
 0.000000000000000 0.000000000000000 0.000000000000000
 0.000000000000000 -0.000000000000000 0.000000000000000
 0.000000000000000 0.000000000000000 -0.000000000000000
 0.000000000000000 0.000000000000000 -0.000000000000000
 -0.000000000000000 0.000000000000000 0.000000000000000
 0.000000000000000 0.000000000000000 -0.000000000000000
 0.000000000000000 -0.000000000000000 0.000000000000000
 0.000000000000000 -0.000000000000000 0.000000000000000
 -0.000000000000000 0.000000000000000 0.000000000000000
 0.000000000000000 0.000000000000000 -0.000000000000000
 232328.862411767 124442.847312889 516659.730812375
 160613.995985898 121039.550027542 544015.231057525
 109744.255031418 115889.028827974 557607.327323546
 74623.4011189855 110848.962549104 564396.895373480
 50623.3258951407 106571.424486984 567873.058313325
 34249.0740688235 103136.423098664 569727.899225448
 23030.4945489436 100407.455575060 570778.362576730
 15269.9127262395 98176.3049678859 571426.498255188
 9800.61375023739 96239.8524746767 571875.719685467
 5823.78219897817 94396.8044218229 572237.124692069
 2778.01932600344 92468.5957116963 572574.747448515
 274.435826162817 90262.9803103143 572933.258827306
 -1967.42040190169 87598.9527741820 573343.311402365
 -4125.72367748605 84261.7762555868 573831.797190074
 -6306.26126281051 80054.6207593434 574414.039490647
 -8504.64044102234 74756.4645576472 575099.245433178
 -10625.7336397335 68229.0315305569 575874.893567188
 -12417.4718539522 60393.1641097060 576713.509570891
 -13538.8303492566 51418.6079885330 577557.639396533
 -13519.1383990647 41693.9389797346 578341.463453297
 -11989.4761971362 32034.1763254772 578990.556060862
 -8686.19439912671 23464.8293531523 579460.051953789
 -3835.17313665554 17242.2153129097 579730.969897344
 2090.07997543264 14306.7360924815 579819.755499998
 8069.56016540411 15231.0093611141 579743.821487196
 13335.7674047976 19764.5343926830 579509.724239349
 16946.9009905105 27190.6834570597 579114.383589249
 18878.6260312443 36314.7428814393 578554.091618603
 18886.2265459944 46021.2758074102 577862.745485389
 17768.7727488040 55372.4836760518 577077.255457661
 15537.2665402446 63744.4748454156 576277.047326318
 13183.0932534261 70936.6046922025 575494.747297501
 10458.1641260056 76772.2971661715 574801.392822723
 8202.36329942783 81542.0119906696 574180.826497035
 5852.52398247010 85162.0910940644 573683.855623915
 4088.17839222877 88130.3103214576 573250.673963909
 2170.47627525075 90260.8050671403 572929.555967721
 661.740383623515 92131.0681378441 572635.510934700
 -1250.49913329507 93419.4506152757 572425.752826214
 -3144.43611041866 94745.5035799181 572200.491150555
 -5903.31168717316 95690.5755967146 572021.384786525
 -9361.15106922406 96905.8580012030 571770.603945070
 -14593.7619184014 97940.3541616393 571484.653459533
 -21944.1409930594 99468.8724784801 570985.462235192
 -33002.8818018954 101083.349582009 570169.243497097
 -49132.8849227122 103455.849997333 568579.674909771
 -73116.0441793054 106266.905787519 565474.481137669
 -108240.754049713 110021.400412810 559087.855899190
 -159402.814932416 114207.671930172 545845.537001002
 -231975.368204365 118138.341648829 518296.016557058
 -0.000000000000000 0.000000000000000 -0.000000000000000
 0.000000000000000 0.000000000000000 -0.000000000000000
 -0.000000000000000 0.000000000000000 0.000000000000000
 0.000000000000000 0.000000000000000 -0.000000000000000
 0.000000000000000 0.000000000000000 0.000000000000000
 -0.000000000000000 0.000000000000000 0.000000000000000
 0.000000000000000 0.000000000000000 0.000000000000000
 0.000000000000000 0.000000000000000 0.000000000000000
 -0.000000000000000 -0.000000000000000 0.000000000000000
 -0.000000000000000 -0.000000000000000 0.000000000000000
 -0.000000000000000 -0.000000000000000 -0.000000000000000
 0.000000000000000 0.000000000000000 0.000000000000000
 -0.000000000000000 -0.000000000000000 0.000000000000000
 0.000000000000000 0.000000000000000 -0.000000000000000
 0.000000000000000 0.000000000000000 0.000000000000000
 0.000000000000000 0.000000000000000 -0.000000000000000
 -0.000000000000000 -0.000000000000000 0.000000000000000
 0.000000000000000 -0.000000000000000 -0.000000000000000
 0.000000000000000 -0.000000000000000 -0.000000000000000
 0.000000000000000 0.000000000000000 -0.000000000000000
 0.000000000000000 -0.000000000000000 0.000000000000000
 0.000000000000000 -0.000000000000000 0.000000000000000
 -0.000000000000000 0.000000000000000 -0.000000000000000
 0.000000000000000 0.000000000000000 0.000000000000000
 -0.000000000000000 0.000000000000000 -0.000000000000000
 220228.689137746 101537.086887206 526867.672634344
 149317.151108392 97184.0386907390 551959.827350352
 100614.680161229 90762.9621594270 563949.262643458
 67789.6225775471 84627.1533535899 569774.351814876
 45698.8914368691 79522.4415654224 572702.184917183
 30736.9625630037 75496.0549728050 574243.489136746
 20487.5092672875 72340.0917420630 575106.227657790
 13333.3387676673 69796.6290996416 575630.656448763
 8186.91608603594 67603.0024279575 575988.548903297
 4292.57027577688 65526.3123619010 576270.662300866
 1120.22021307029 63326.9538823022 576531.388580590
 -1725.38073741999 60775.7538207793 576804.412958871
 -4529.32425781290 57598.0309269477 577115.198253439
 -7505.47455602784 53507.7622621296 577477.780723543
 -10763.7735043199 48146.8487140453 577897.934015043
 -14312.5625297665 41167.8642780886 578360.058704448
 -17967.6707631726 32198.8114231923 578826.743810512
 -21347.8865429972 21040.2850438317 579224.977142234
 -23774.0879340057 7705.19145336906 579461.321200624
 -24411.8146075790 -7231.48417890635 579440.910657968
 -22338.7649401517 -22632.0154592371 579127.595143938
 -17059.6155401010 -36591.1195035900 578593.172696583
 -8649.52220517556 -46996.0800001925 578028.160412827
 1744.12705326188 -51861.7231966648 577674.060078774
 12544.3912813532 -50315.4247329261 577677.242308649
 21700.5670994095 -42611.2981994866 578025.399661052
 28100.6234560983 -30350.5623977346 578523.291081284
 30904.8524811711 -15565.0833019966 578966.854210946
 30840.6267982888 -357.788289662065 579179.357130611
 28242.0936286051 13778.5088547441 579148.113042953
 24644.8935205454 26025.9579901555 578891.422232232
 20210.4307933902 36020.1305078133 578527.517656115
 16228.2684612153 44011.2130114928 578100.040159147
 12238.3412198319 50049.1105778639 577706.940874481
 9173.65951223154 54784.2031928337 577333.989170636
 6184.87037015161 58165.5802822110 577042.903646633
 4013.04910004419 60937.2773298002 576775.990891222
 1671.77771240965 62822.6406920219 576585.224382104
 -223.284922754814 64592.4627248186 576392.022761406
 -2696.97788145436 65787.5921117097 576250.569660847
 -5321.42012821995 67203.8284108730 576068.856938770
 -9205.46306379849 68283.7709644484 575892.859890323
 -14294.6391902485 69845.2402397987 575601.690152370
 -21992.7071204820 71320.3206952355 575178.000874026
 -32996.0706944486 73522.2604314965 574374.212982938
 -49492.5938442605 75942.8588418088 572872.730495614
 -73655.8259746989 79287.1663033481 569814.324635289
 -109357.899167959 83046.4923791222 563510.541155261
 -161178.840372960 87358.8312476604 550263.406033030
 -234711.558378476 90900.1835360216 522539.607108078
 -0.000000000000000 -0.000000000000000 0.000000000000000
 0.000000000000000 -0.000000000000000 -0.000000000000000
 0.000000000000000 0.000000000000000 0.000000000000000
 -0.000000000000000 0.000000000000000 0.000000000000000
 -0.000000000000000 -0.000000000000000 -0.000000000000000
 0.000000000000000 0.000000000000000 -0.000000000000000
 -0.000000000000000 -0.000000000000000 -0.000000000000000
 -0.000000000000000 0.000000000000000 0.000000000000000
 0.000000000000000 -0.000000000000000 0.000000000000000
 0.000000000000000 -0.000000000000000 0.000000000000000
 -0.000000000000000 -0.000000000000000 -0.000000000000000
 0.000000000000000 0.000000000000000 0.000000000000000
 -0.000000000000000 0.000000000000000 0.000000000000000
 -0.000000000000000 -0.000000000000000 -0.000000000000000
 0.000000000000000 -0.000000000000000 0.000000000000000
 -0.000000000000000 -0.000000000000000 0.000000000000000
 -0.000000000000000 -0.000000000000000 -0.000000000000000
 -0.000000000000000 -0.000000000000000 -0.000000000000000
 -0.000000000000000 0.000000000000000 -0.000000000000000
 -0.000000000000000 0.000000000000000 0.000000000000000
 0.000000000000000 0.000000000000000 0.000000000000000
 -0.000000000000000 0.000000000000000 -0.000000000000000
 -0.000000000000000 0.000000000000000 -0.000000000000000
 -0.000000000000000 -0.000000000000000 0.000000000000000
 -0.000000000000000 -0.000000000000000 0.000000000000000
 197683.408562200 89366.0150153932 537898.675718298
 130747.981949330 82563.5574231302 559006.461681630
 87186.2179420413 73977.3106277347 568617.552413967
 58576.6499472193 66440.6086898831 573196.669213874
 39478.0794823587 60505.9628423408 575482.849180500
 26509.6436849382 55983.8619565204 576682.794950683
 17523.3595631733 52522.1059096412 577351.158533900
 11117.2955050786 49761.6593494244 577754.431397496
 6334.25633048058 47393.7841125366 578025.697027593
 2501.95885429949 45125.6569602777 578236.470041275
 -889.054901757387 42687.1554811902 578426.327494095
 -4233.36037962128 39766.9329724667 578619.624366354
 -7866.16246828693 36025.9183319951 578826.620583711
 -12048.3403077021 31018.2509407909 579044.649059469
 -16971.1334462138 24232.1239907686 579245.012750603
 -22662.1924932460 15017.6775102613 579362.489632869
 -28921.1764070022 2724.52427878000 579272.079874984
 -35128.9358415820 -13264.7837955528 578783.209308542
 -40188.7068833869 -33132.0240872779 577656.590734428
 -42444.4606942331 -56357.8581732076 575692.851769504
 -40101.7995937950 -81099.3724280164 572900.285792494
 -31764.7884697083 -104263.413614664 569666.690964894
 -17524.7586024885 -121777.023820874 566800.881531826
 846.459628672072 -130115.714099197 565216.051126075
 19857.2798130428 -127343.538558259 565499.170314058
 36050.9017162844 -114246.087321740 567492.875741287
 46562.0139867927 -93614.6744133757 570498.266069207
 50935.7019593848 -69480.7998617422 573566.014262070
 49595.1384459032 -45394.0311026206 576090.013958571
 44844.8650665711 -23838.0311756150 577772.175123406
 37876.2979328649 -5966.35578428363 578731.188595843
 30869.5336394036 8170.95098688584 579120.287550743
 23883.4828823375 18812.0554174643 579202.629324470
 18245.6133584636 26844.3411820713 579091.080003547
 13116.6434604677 32547.0149920947 578937.514313449
 9386.50915439762 36919.0954930015 578747.677173631
 5890.03977479158 39879.1511479904 578597.408164923
 3365.69120321277 42382.0600340336 578439.653818785
 602.128844418966 44023.9533112893 578326.489948109
 -1787.64300400923 45742.9893819120 578190.611524345
 -5019.87089669231 46938.5758036663 578075.748494697
 -8740.69546900826 48559.1274682999 577897.578626383
 -14298.0641777078 49925.2514767326 577670.351174227
 -21881.8017125281 51985.3896275696 577250.990487746
 -33311.2306396113 54075.4977596228 576512.100875015
 -49865.0923580986 57072.7337640302 575027.108599950
 -74533.5073471433 60357.2781870722 572015.520114955
 -110606.955313470 64487.7647076227 565691.991846534
 -163113.545987652 68608.5495632101 552346.664733451
 -237251.507307218 71998.5428567284 524335.705542700
 0.000000000000000 -0.000000000000000 0.000000000000000
 0.000000000000000 -0.000000000000000 0.000000000000000
 0.000000000000000 -0.000000000000000 0.000000000000000
 0.000000000000000 -0.000000000000000 -0.000000000000000
 -0.000000000000000 0.000000000000000 -0.000000000000000
 0.000000000000000 0.000000000000000 -0.000000000000000
 -0.000000000000000 -0.000000000000000 -0.000000000000000
 0.000000000000000 -0.000000000000000 0.000000000000000
 0.000000000000000 -0.000000000000000 0.000000000000000
 -0.000000000000000 -0.000000000000000 0.000000000000000
 0.000000000000000 0.000000000000000 -0.000000000000000
 0.000000000000000 0.000000000000000 0.000000000000000
 0.000000000000000 -0.000000000000000 -0.000000000000000
 0.000000000000000 -0.000000000000000 0.000000000000000
 -0.000000000000000 0.000000000000000 0.000000000000000
 -0.000000000000000 0.000000000000000 0.000000000000000
 0.000000000000000 -0.000000000000000 0.000000000000000
 0.000000000000000 -0.000000000000000 -0.000000000000000
 0.000000000000000 -0.000000000000000 -0.000000000000000
 0.000000000000000 0.000000000000000 0.000000000000000
 0.000000000000000 -0.000000000000000 0.000000000000000
 -0.000000000000000 -0.000000000000000 -0.000000000000000
 -0.000000000000000 -0.000000000000000 0.000000000000000
 0.000000000000000 0.000000000000000 0.000000000000000
 -0.000000000000000 0.000000000000000 -0.000000000000000
 155517.829292602 87731.2841995809 551830.976427393
 101777.028033511 74683.4495187389 566095.238394254
 68880.7723843176 62555.5709016128 572487.763838594
 47106.7856673782 53407.1177777792 575611.527433875
 32193.3438575092 46779.0211619925 577213.402296238
 21757.5444843605 41965.7975105228 578070.481081085
 14281.0994468725 38370.0423103132 578553.186882324
 8717.98953295630 35537.2456406297 578844.625811436
 4318.45220025367 33092.0448923536 579039.089816428
 500.047485212005 30718.7028669964 579185.731218132
 -3210.92853884540 28086.1745278714 579310.673765216
 -7248.55790666679 24841.4636867547 579422.436647196
 -12014.6334662852 20518.7574141325 579512.406404600
 -17904.8586559512 14540.0648588751 579541.200045701
 -25244.4946261740 6101.98276814287 579418.226583671
 -34221.5923374399 -5784.79244491258 578960.636653528
 -44660.2891468053 -22357.6947860458 577845.647259870
 -55774.1207559483 -44829.1102729210 575568.934469225
 -65764.0873772938 -74074.7754407635 571478.794405210
 -71711.7691860071 -109686.864876326 565001.074188196
 -69891.3207031738 -149142.917801189 556121.923106897
 -57269.7991835105 -187061.600490770 546011.105860780
 -33306.9293926296 -216327.683701939 537115.426811209
 -1430.60997646244 -230237.070479463 532342.788748124
 32025.4143437609 -225521.081516631 533399.113823485
 59809.7478600365 -203377.824849242 539870.590438588
 77257.5167226775 -169251.185265718 549349.899787007
 82872.5755163780 -130177.755321551 559093.809880529
 79218.9514059968 -92533.4400572162 567064.299889626
 69392.1003062781 -60137.9818166604 572685.043944839
 57535.8070521363 -34341.0397357944 576116.588805360
 45254.6069272628 -14939.9561693314 578038.768822228
 34766.0285448986 -693.560219219216 578956.684246271
 25559.1588177529 9323.37666553653 579361.548644783
 18686.4612640516 16592.6961893939 579461.386632961
 12811.5007132284 21486.1610870944 579460.275024280
 8690.89230397201 25254.2959271068 579384.750341418
 4867.25882254756 27697.1815656167 579317.853966953
 2036.15362111865 29924.6173580995 579223.938865102
 -1198.23051014315 31378.7267934381 579149.324223440
 -4281.15311025999 33132.3367222243 579037.062709609
 -8607.18725561966 34451.5212259453 578911.918181657
 -13992.8165207816 36404.7221754227 578687.218874883
 -22068.5699828455 38212.8167365500 578318.907572604
 -33436.5225259375 40901.2909634677 577589.026349094
 -50472.0625368683 43723.8050536393 576143.037599957
 -75305.9949099735 47511.0659068111 573124.511556623
 -111938.053157286 51483.5249880550 566762.136094289
 -164862.792498008 55784.9677816381 553270.545953208
 -239471.980555602 58907.7534284132 524960.043350724
 257466.324507180 272561.740723887 442516.880173319
 188682.126992603 269907.951124250 477439.789788678
 135284.101831515 267320.088429608 496626.803660080
 95793.0870228589 265026.161452712 506936.700411671
 67330.7205306698 263137.656031659 512469.655736791
 47108.0913673146 261638.724057239 515486.183909354
 32860.0681537814 260461.530040237 517184.693596038
 22876.1143699588 259532.011152367 518188.979599663
 15909.3653331585 258787.093732080 518821.869443068
 11068.1827821639 258177.332672020 519251.345905104
 7722.60404325928 257663.891377565 519566.820021219
 5431.93373092068 257214.050195223 519818.647682163
 3891.59257598053 256796.454002652 520038.880006953