# OOMMF OVF 2.0
#
# Segment count: 1
#
# Begin: Segment
# Begin: Header
#
# Title: Oxs_TimeDriver::Magnetization
# Desc: Oxs vector field output
# Desc:  MIF source file: C:/Users/Victor H. González/Documents/GitHub/Intro-to-magnetism-in-python/domain_wall_conversion_thin_film/drive-3/domain_wall_conversion_thin_film.mif
# Desc:  Iteration: 55, State id: 284
# Desc:  Stage: 23, Stage iteration: 2
# Desc:  Stage simulation time: 2e-12 s
# Desc:  Total simulation time: 4.8e-11 s
# meshunit: m
# meshtype: rectangular
# xbase: -4.7499999999999995e-08
# ybase: -4.7499999999999995e-08
# zbase: 0
# xnodes: 20
# ynodes: 20
# znodes: 1
# xstepsize: 5.0000000000000001e-09
# ystepsize: 5.0000000000000001e-09
# zstepsize: 5.0000000000000001e-09
# xmin: -4.9999999999999998e-08
# ymin: -4.9999999999999998e-08
# zmin: -2.5000000000000001e-09
# xmax: 4.9999999999999998e-08
# ymax: 4.9999999999999998e-08
# zmax: 2.5000000000000001e-09
# valuedim: 3
# valuelabels: Magnetization_x Magnetization_y Magnetization_z
# valueunits: A/m A/m A/m
#
# End: Header
#
# Begin: Data Text
 0.000000000000000 -0.000000000000000 -0.000000000000000
 -0.000000000000000 0.000000000000000 0.000000000000000
 0.000000000000000 0.000000000000000 -0.000000000000000
 0.000000000000000 0.000000000000000 0.000000000000000
 0.000000000000000 0.000000000000000 0.000000000000000
 0.000000000000000 -0.000000000000000 0.000000000000000
 -0.000000000000000 -0.000000000000000 0.000000000000000
 640077.261847202 -479823.965181049 8370.26308570882
 674230.712064593 -430573.008480089 4453.23222790449
 707425.571768212 -373547.168934351 3401.90969165411
 735593.055909344 -314447.952314145 5034.02258580798
 756913.282113190 -258838.518181472 9214.38366133277
 768848.062318332 -220546.187200840 15232.7404139205
 -0.000000000000000 -0.000000000000000 -0.000000000000000
 -0.000000000000000 0.000000000000000 -0.000000000000000
 -0.000000000000000 -0.000000000000000 -0.000000000000000
 0.000000000000000 -0.000000000000000 -0.000000000000000
 0.000000000000000 0.000000000000000 0.000000000000000
 0.000000000000000 0.000000000000000 -0.000000000000000
 0.000000000000000 0.000000000000000 0.000000000000000
 0.000000000000000 0.000000000000000 -0.000000000000000
 -0.000000000000000 0.000000000000000 -0.000000000000000
 0.000000000000000 -0.000000000000000 -0.000000000000000
 -0.000000000000000 -0.000000000000000 0.000000000000000
 0.000000000000000 -0.000000000000000 -0.000000000000000
 537630.822868678 -592412.406047327 799.664157501352
 573794.876684830 -557457.947667944 275.811682253182
 608832.001420342 -518956.711731338 2743.24543156084
 646582.581557677 -471090.844446913 2093.20436285753
 685034.950514225 -413187.479482103 1795.37550399292
 720224.468066043 -348242.257637551 2011.36632345414
 750779.697150292 -276262.288233701 2999.07432312516
 776235.692101679 -193515.631299552 3138.59047410477
 794983.814943075 -89437.4284126230 1296.29375181079
 799633.079803903 -23417.4694265989 6209.65449754955
 -0.000000000000000 -0.000000000000000 -0.000000000000000
 0.000000000000000 -0.000000000000000 0.000000000000000
 0.000000000000000 -0.000000000000000 0.000000000000000
 0.000000000000000 0.000000000000000 -0.000000000000000
 -0.000000000000000 -0.000000000000000 0.000000000000000
 0.000000000000000 -0.000000000000000 0.000000000000000
 -0.000000000000000 -0.000000000000000 -0.000000000000000
 -0.000000000000000 -0.000000000000000 -0.000000000000000
 419189.757752217 -681379.857589968 -1198.61015894891
 462907.134842054 -652464.960038733 -2541.73837643357
 499278.942704937 -625076.246259485 -473.004854761254
 533935.794169799 -595745.017213091 664.958675652223
 569588.015787130 -561753.604598582 1542.72232753497
 610511.668092103 -516985.125622882 1372.22741967988
 653844.240124056 -460963.044686152 883.793114362254
 697377.157140135 -391999.715557604 1150.52244742678
 737751.897123222 -309389.588930908 469.629907935789
 772028.095343575 -209694.670461588 -874.745779177149
 794417.064070578 -94289.6271812377 -3315.79847177564
 799689.861166170 21501.3103529518 -5815.46224633744
 787337.621833209 141310.670031526 -11435.1992229238
 769008.813631383 220330.013615439 -8951.51704870914
 0.000000000000000 0.000000000000000 -0.000000000000000
 0.000000000000000 -0.000000000000000 0.000000000000000
 -0.000000000000000 -0.000000000000000 -0.000000000000000
 -0.000000000000000 -0.000000000000000 -0.000000000000000
 0.000000000000000 0.000000000000000 0.000000000000000
 335215.621757463 -726374.573720278 3235.05524542692
 376439.017291005 -705899.137863624 -270.969324674216
 413850.008879372 -684637.233772016 168.177128237512
 448568.475041332 -662408.742051913 990.783677714371
 482112.145611804 -638407.544671296 1919.88550422342
 521155.337348894 -606955.145265493 1601.87031443673
 564563.909645554 -566801.830155810 1810.31979253112
 613976.940530662 -512857.360616291 3105.50451625942
 665154.176748044 -444474.301757977 3537.82862652793
 716840.427351247 -355145.982915126 3336.54523890938
 762591.566542016 -241767.406840406 1619.76191429053
 792930.541859291 -106111.751358162 -1204.99395590627
 799069.617063266 37947.3586007345 -6909.78014074988
 780478.336509550 175105.605607179 -13841.7168092975
 745701.797458440 289195.808723876 -17164.3084275102
 704318.593069840 378999.373111606 -17169.5846522317
 0.000000000000000 0.000000000000000 -0.000000000000000
 0.000000000000000 0.000000000000000 -0.000000000000000
 0.000000000000000 0.000000000000000 -0.000000000000000
 -0.000000000000000 0.000000000000000 0.000000000000000
 297368.190040953 -742665.778982422 4438.49976910190
 326150.127822372 -730490.840569844 3037.42736761666
 357403.972315020 -715720.556608242 2546.64913805192
 387831.113320284 -699695.100668337 3713.97919691352
 422283.512879506 -679463.238767763 2518.31558113917
 460617.829705750 -654080.571079282 3133.92625378342
 507741.102834153 -618201.834967566 5046.16047036780
 559241.663435900 -572002.672064807 7855.25481236903
 619067.427753902 -506615.772180675 9796.90113991110
 683925.383964363 -414903.168570544 10071.2402076928
 746963.052142856 -286196.110540398 11746.7035791407
 790507.279847962 -122363.479901901 11199.0755722075
 797812.740934125 59050.0958801748 2813.64171859843
 767481.659277753 225537.609607171 -10231.7801457241
 714430.485613324 359449.421460881 -19626.3760727328
 657935.255197870 454618.044778587 -21062.6050005537
 -0.000000000000000 -0.000000000000000 0.000000000000000
 0.000000000000000 -0.000000000000000 -0.000000000000000
 -0.000000000000000 -0.000000000000000 -0.000000000000000
 216220.491158377 -770200.033678248 6372.38772006696
 249952.111446736 -759934.359778661 4869.37481773432
 272251.269382970 -752236.205130973 4465.19982919381
 295545.321447393 -743382.066493511 6005.51300009049
 321801.699944249 -732408.846322190 4576.87032689486
 351251.381896479 -718744.953507533 5306.46052180112
 389804.872017975 -698581.705068845 5980.22525951843
 432300.119066543 -673055.463668520 10627.7881521281
 485775.710399406 -635458.178420619 14658.1944420547
 550591.652010837 -580138.460500929 16976.4361274608
 632968.569093171 -488704.133641042 22782.8949499749
 720333.697754267 -346183.087539666 35730.0123309141
 785823.171867848 -142209.821719723 47521.6704462217
 793345.493720392 97202.3042936788 33979.9887219756
 741214.708572010 300936.345942868 6170.20964509039
 662557.388257660 448029.106833608 -16959.5605800319
 581081.347901592 549008.867220740 -30557.0095701522
 498804.100807344 624325.246211832 -37582.6550460610
 -0.000000000000000 0.000000000000000 0.000000000000000
 -0.000000000000000 0.000000000000000 0.000000000000000
 180901.129234245 -779260.584981046 5265.18155165567
 197235.759312046 -775290.003618488 4844.12405361731
 213193.025503880 -771039.527625540 6839.64293562511
 229378.402438211 -766383.479137809 6473.90141422602
 247846.469762008 -760596.513045960 8066.70743463597
 273321.758805083 -751829.636914345 6885.72588329372
 302185.490708348 -740642.911410863 11489.4291501109
 340092.055563704 -723933.363594447 16058.6057079780
 385004.886061558 -700951.133525103 20946.2674145121
 453711.523954612 -658330.767337064 27321.3068533901
 549362.029023943 -579572.726537577 47925.1053258590
 667137.217413156 -431202.018962018 94830.1217193753
 767440.641814942 -174082.414977288 143979.769712087
 772940.125145298 169139.092586613 118133.527414316
 681676.146067248 415702.393386726 50091.4365480884
 573289.824533174 557976.509710931 -995.840112759554
 479851.473531372 639514.354618629 -27639.7103184890
 408108.396812750 687049.471566324 -37557.4236517996
 -0.000000000000000 -0.000000000000000 -0.000000000000000
 93381.1443368036 -794525.022433105 -3154.45875281498
 126871.737347292 -789875.121325189 924.648040309986
 139897.763955409 -787659.273054661 4635.21426468142
 148835.549949680 -786008.722565454 6186.04253130445
 158073.482657869 -784171.886004330 9339.55463736234
 169594.201172367 -781775.773779494 8027.85526647747
 184043.143367665 -778455.628262159 11617.0653056851
 204722.079179847 -773231.679097547 14200.0259249478
 225171.083654816 -767361.971498616 21297.6004158414
 259079.270851415 -756409.429294572 26883.2045961694
 312630.814202487 -735137.751696824 42830.5970216193
 403506.299166816 -684222.759796387 94983.5854730502
 531077.915885630 -559230.650997586 212643.660247356
 668551.864979675 -239905.595157597 368081.117750256
 672289.429993406 300491.248337824 312621.067734594
 533547.070507994 579846.392154103 138223.315899335
 411764.361928234 685219.983772936 30392.1714270531
 327106.088365744 729773.395038280 -20794.2022776708
 264285.114978402 753749.430544817 -44890.6889479115
 185136.843743149 775688.757515000 -63492.5236044433
 56176.9354530624 -798025.054881258 404.604581126702
 69963.8721809969 -796931.523387242 2281.14469758807
 77033.2902185320 -796270.824272740 4318.17208071189
 81535.6693157850 -795794.003077236 7989.94965782327
 83001.2688084766 -795639.997284724 8233.10979809381
 85570.2064889082 -795325.390756155 11630.2441940697
 90832.8778984098 -794744.043639797 11458.3328524132
 93645.2116420796 -794289.557630388 18294.0694169671
 98718.7195379366 -793555.953746093 22881.4922354125
 102747.125655117 -792711.962452007 32415.6251690301
 121319.011565270 -788543.418690306 58999.7819744403
 150227.320784066 -772690.384199971 142763.168411683
 189257.931883190 -694452.914886443 349165.554178846
 229519.136291217 -335702.542217416 688930.162806723
 242982.962332913 470971.497964955 599287.183344153
 183367.733026002 739284.788334621 244610.458120537
 141327.792349362 784847.790366817 63564.1492193442
 115900.392144230 791508.448275991 -9026.37294521524
 95183.6846783448 793352.422433586 -39140.7714514590
 72163.8736610103 795040.209251767 -51994.6248293588
 12680.2290646634 -799887.251971000 4426.72849285662
 14588.9210378995 -799853.122601966 4705.91615253781
 15422.9238813460 -799825.234425854 6459.70545604520
 11562.5817980214 -799882.610667809 7356.34783126423
 6898.84212145683 -799895.727280759 10919.3157005734
 378.339316700391 -799938.701298704 9896.01050443456
 -7791.94682837959 -799826.084683426 14748.5533055178
 -17670.9586525813 -799628.377977140 16798.6414315717
 -38163.4618462590 -798718.380379146 24341.3028497321
 -62170.0397536045 -796920.521112584 32443.3226825329
 -100597.236036471 -791491.213447399 58496.6250085165
 -164875.773278677 -771586.685703015 132173.998318864
 -297763.036593506 -680751.679785667 296503.498305850
 -499185.124195466 -320912.308333880 536497.439082218
 -494483.661482624 403987.137334593 481954.667365031
 -313578.812429668 704402.416849350 213273.447789436
 -191232.284354539 774476.673662462 60133.9785252354
 -123422.253999858 790394.415562539 -6604.17028461334
 -86169.1347370597 794673.262120896 -32699.9493699967
 -68990.5518148097 795845.517747877 -43245.9898823183
 -31737.2259351717 -799320.457375867 8919.35593945495
 -38149.2408012801 -799048.420628895 8139.83517984486
 -46986.7561682930 -798582.903537267 7588.86834581272
 -55967.6265323294 -797981.140399383 9681.13357196806
 -69318.4876814454 -796938.081146455 9200.11326902577
 -84294.9919385282 -795444.108956033 12768.0797783601
 -102246.957161216 -793347.114257832 12079.5716001414
 -129113.479267447 -789304.658242751 18107.0689993803
 -163669.757316891 -782794.145121533 21107.7451016995
 -216794.303633722 -769518.859817671 28999.2120044876
 -287210.566236875 -745305.391062008 45055.1295170857
 -396912.138556345 -689430.478015735 84536.2067378479
 -556508.098463395 -552736.370691214 157420.585883049
 -726591.513471095 -239052.667724073 234347.166839686
 -736038.808987266 232803.294216860 209879.722380189
 -586384.767134669 533819.290920787 105782.179563706
 -436110.938162171 670080.140588512 28281.7044074873
 -326482.225904885 730266.343859008 -10973.7502700526
 -252460.004918177 758518.786602044 -30219.1377851287
 -206376.917217034 772020.479871179 -37322.2011605427
 -74585.7181089558 -796395.220548375 13842.8083088538
 -92596.7592436760 -794545.641300058 11093.4245681581
 -106972.298291176 -792754.380376810 9870.14648749181
 -123551.577625049 -790352.609097002 8818.21750253528
 -141666.324044870 -787273.226737237 11468.1774642904
 -164433.841045309 -782852.505641811 10171.8400215549
 -192833.762613033 -776281.677867723 14209.0324572936
 -227325.280078746 -766883.970559457 14566.8368591692
 -277205.741144072 -750177.948351956 19748.9970179567
 -338973.764232512 -724269.118508171 23044.1128585558
 -424155.096811704 -677583.919667235 31184.7022919898
 -531877.164795239 -595705.041507374 47351.7168862402
 -661780.596926314 -443901.733897185 70694.3574475679
 -771679.432897327 -191469.332068827 88602.1880112247
 -785861.688565947 129307.581133043 75504.6747281201
 -698613.625250594 387964.986417575 37711.6948469804
 -580316.366223854 550642.943029431 5026.36893078496
 -472732.121124866 645174.024528656 -16577.6877242570
 -387004.283449617 699605.014705688 -27937.5730925852
 -325645.414753633 729937.492484815 -33857.3613105965
 -111774.690465307 -791925.870557441 18969.2939569367
 -148522.650262771 -785983.031559574 13103.2995594466
 -167677.891586723 -782171.131560503 9614.86486613038
 -186521.742942871 -777885.166857205 10213.0599279876
 -210493.814638099 -771754.183287647 9372.01030297072
 -239009.004499428 -763360.355291737 12476.5274441809
 -272657.809702616 -752015.443871600 11423.2651537388
 -316462.529065100 -734586.990916856 15278.1043797820
 -368171.125662494 -710067.136759795 15958.8070405765
 -436465.340995462 -670178.022144727 18958.5005708943
 -516067.057033864 -610904.199180517 21699.1259735973
 -611190.908499295 -515515.012361767 26266.8117108598
 -708170.862950595 -370768.295992537 32014.0524551498
 -781867.376146079 -166165.734236255 32746.8301393138
 -796318.389852754 72622.7938909548 24555.0766602026
 -746382.488407077 287801.522032124 9135.91348754064
 -661558.860898887 449772.226795885 -6694.59253717774
 -570657.678788462 560366.613980973 -18413.8962542740
 -489839.631022038 631890.970954112 -27765.7470071454
 -414332.558297576 683607.955595077 -31759.9461854911
 0.000000000000000 0.000000000000000 -0.000000000000000
 -202654.334330188 -773859.790987480 8499.68646493640
 -222699.636961759 -768323.004982662 9199.54952773635
 -246098.397384174 -761155.346581282 8838.39214284819
 -273404.708492392 -751746.414935083 11277.9876946037
 -306001.004438501 -739089.103179207 10520.5914464870
 -345335.132912714 -721501.490037050 13388.2728712158
 -389709.171480026 -698541.802873059 12888.4174050513
 -445578.189800557 -664249.551565181 15251.5579372730
 -508142.335154066 -617698.089575499 15506.0426593194
 -582108.632763069 -548533.124994375 16153.9607098604
 -659387.569095379 -452683.953836788 16889.9870094627
 -733442.957291974 -319056.969198989 16250.5016648158
 -785727.602689864 -149793.637110126 13928.4117026543
 -798954.185341005 40138.7837464647 7815.86626332700
 -768899.083568777 220892.236729576 -905.008121450310
 -708615.315139659 371153.372595593 -10464.6624617953
 -636413.890888318 484273.725856894 -21361.5994034598
 -570916.728327475 559425.278601647 -33127.7372804300
 0.000000000000000 -0.000000000000000 0.000000000000000
 -0.000000000000000 -0.000000000000000 -0.000000000000000
 -238819.471781363 -763474.497040320 8482.46821983313
 -273191.766653252 -751851.710394551 9233.86212066707
 -299696.226584047 -741665.299872343 10712.3637238325
 -331206.075519063 -728140.201069389 10695.0047167182
 -367566.422291546 -710442.029375331 12924.7089272384
 -407415.390186320 -688380.172112305 12059.7878075290
 -454526.078885977 -658190.634920730 13825.0394279788
 -505725.276893611 -619725.634996547 13493.7629668975
 -565626.075344393 -565573.342180116 13926.1446823134
 -628180.001503588 -495183.059641336 13550.7621629775
 -692574.078532382 -400232.949815665 12439.1168043610
 -749149.181653931 -280448.861186580 11132.8292179153
 -788314.396441000 -136012.758610515 7806.52669373112
 -799715.618963025 21105.2844155350 3081.51850961995
 -780749.777768014 174399.506152427 -3820.57181398700
 -737619.144280489 309438.433706081 -12878.4213491708
 -681697.479343574 417994.339990101 -23859.5555880056
 -625050.034087128 497959.945875924 -36719.8473706916
 -0.000000000000000 0.000000000000000 0.000000000000000
 0.000000000000000 -0.000000000000000 -0.000000000000000
 0.000000000000000 0.000000000000000 -0.000000000000000
 -317424.050162763 -734268.309125153 9592.84070314692
 -348951.749900091 -719789.926541302 11624.8824222732
 -385099.058908959 -701080.456956438 13598.0771135253
 -422894.796357310 -678965.381595562 12884.1689178561
 -464157.304111543 -651434.910799380 13804.1309653814
 -507548.653736790 -618246.236903107 12882.3384957908
 -557123.523079646 -573968.168860615 13187.9174290423
 -608922.087142993 -518703.570236342 12668.7810579173
 -663801.666891932 -446350.579911125 11768.8930870560
 -715707.126917057 -357276.307392539 10814.2801925653
 -760451.481539399 -248267.242607020 8770.43173631373
 -790386.855233274 -123500.146000202 6027.68715045794
 -799940.356730950 9695.36979846206 1193.93367995073
 -787632.723650781 139999.229090290 -5908.34059409664
 -757779.226119388 255927.788968400 -16480.6339577399
 -721048.193183644 345190.360637195 -30546.9806980248
 0.000000000000000 -0.000000000000000 0.000000000000000
 -0.000000000000000 0.000000000000000 0.000000000000000
 -0.000000000000000 0.000000000000000 -0.000000000000000
 -0.000000000000000 -0.000000000000000 0.000000000000000
 -354610.272780447 -717019.052808432 11628.9444179425
 -396200.402391518 -694842.199061042 14817.5419289069
 -436068.608988229 -670532.155024107 15192.0154620191
 -474725.107979939 -643745.630182405 15087.5933963669
 -512944.869621994 -613759.787957298 13655.8930534675
 -554529.936270033 -576473.924146593 13204.7173154185
 -598029.692921203 -531233.654920086 12300.0107649941
 -644855.903553283 -473317.805592230 11450.7013687116
 -690597.277577152 -403689.575247638 10494.1431002326
 -733406.317928583 -319430.238479877 8916.02866344537
 -768694.228929385 -221487.878767521 7232.01007483831
 -792176.266522890 -111533.279654600 4134.04007529472
 -799996.030666628 2388.93211993583 -802.446861674981
 -791876.269536153 113394.549240623 -8581.95479031656
 -771944.459902560 208993.291262293 -20580.4526942153
 -747289.861565527 283449.350617890 -34847.2156086092
 -0.000000000000000 -0.000000000000000 -0.000000000000000
 0.000000000000000 0.000000000000000 0.000000000000000
 0.000000000000000 -0.000000000000000 -0.000000000000000
 -0.000000000000000 0.000000000000000 0.000000000000000
 0.000000000000000 0.000000000000000 -0.000000000000000
 -437622.405056772 -669500.897112051 15974.3343675342
 -481634.230399896 -638530.800224684 17518.1412120113
 -519350.556725678 -608310.785412694 15263.9306641412
 -556206.297810625 -574830.883192261 14283.2070699796
 -593021.324019209 -536816.481954450 12400.5629126982
 -633083.975609411 -488953.877338553 11348.3770724334
 -673483.451847513 -431643.334670606 10201.5548814370
 -712264.570960619 -364155.773769001 8351.84919556336
 -746531.876037035 -287484.961192442 6523.43075420340
 -774685.841202596 -199608.712031953 4267.26155403086
 -793489.696522128 -101847.850712934 1056.79627983284
 -799963.116404711 -6057.22905972262 -4724.65535051643
 -794479.777181164 93044.2622935978 -12027.0072922700
 -784416.124136286 155073.495580094 -25368.3890615331
 -0.000000000000000 0.000000000000000 0.000000000000000
 0.000000000000000 0.000000000000000 0.000000000000000
 0.000000000000000 -0.000000000000000 -0.000000000000000
 -0.000000000000000 0.000000000000000 0.000000000000000
 -0.000000000000000 0.000000000000000 0.000000000000000
 -0.000000000000000 0.000000000000000 -0.000000000000000
 -0.000000000000000 -0.000000000000000 0.000000000000000
 -0.000000000000000 0.000000000000000 0.000000000000000
 -554594.318723865 -576410.701975166 13260.6292350088
 -590761.912025256 -539270.117315541 13715.0964541111
 -624911.210631159 -499371.387542702 10686.2589888471
 -661547.626288345 -449728.660007204 9943.36564655830
 -697517.933636881 -391662.020769616 8342.28635310106
 -729154.983157651 -329089.713283180 5742.05081484722
 -755687.987557873 -262546.186199023 2272.78971337694
 -777450.183251727 -188601.230165147 -887.998902359783
 -794033.155840383 -97446.5046714664 -3940.32403174045
 -798668.285457549 -44344.0952820955 -12750.3340313190
 0.000000000000000 0.000000000000000 -0.000000000000000
 -0.000000000000000 0.000000000000000 -0.000000000000000
 -0.000000000000000 0.000000000000000 0.000000000000000
 0.000000000000000 -0.000000000000000 0.000000000000000
 0.000000000000000 0.000000000000000 -0.000000000000000
 -0.000000000000000 -0.000000000000000 0.000000000000000
 -0.000000000000000 0.000000000000000 -0.000000000000000
 -0.000000000000000 -0.000000000000000 -0.000000000000000
 -0.000000000000000 0.000000000000000 -0.000000000000000
 0.000000000000000 -0.000000000000000 0.000000000000000
 0.000000000000000 -0.000000000000000 0.000000000000000
 0.000000000000000 -0.000000000000000 0.000000000000000
 -651901.559723692 -463676.835989155 5305.48743318444
 -684652.777192409 -413750.400624334 7821.80707539440
 -715804.381741599 -357180.479678257 6796.47087372866
 -741400.080479255 -300529.323002841 2836.66720083946
 -760101.550781336 -249467.165828589 -3430.11271824677
 -770144.039744654 -216257.098469620 -10536.8594602372
 0.000000000000000 0.000000000000000 0.000000000000000
 -0.000000000000000 -0.000000000000000 -0.000000000000000
 0.000000000000000 0.000000000000000 -0.000000000000000
 -0.000000000000000 0.000000000000000 0.000000000000000
 0.000000000000000 0.000000000000000 -0.000000000000000
 -0.000000000000000 0.000000000000000 0.000000000000000
 -0.000000000000000 0.000000000000000 0.000000000000000
# End: Data Text
# End: Segment
