# OOMMF OVF 2.0
#
# Segment count: 1
#
# Begin: Segment
# Begin: Header
#
# Title: Oxs_TimeDriver::Magnetization
# Desc: Oxs vector field output
# Desc:  MIF source file: C:/Users/Victor H. González/Documents/GitHub/Intro-to-magnetism-in-python/domain_wall_conversion_thin_film/drive-3/domain_wall_conversion_thin_film.mif
# Desc:  Iteration: 268, State id: 1420
# Desc:  Stage: 94, Stage iteration: 2
# Desc:  Stage simulation time: 2e-12 s
# Desc:  Total simulation time: 1.9e-10 s
# meshunit: m
# meshtype: rectangular
# xbase: -4.7499999999999995e-08
# ybase: -4.7499999999999995e-08
# zbase: 0
# xnodes: 20
# ynodes: 20
# znodes: 1
# xstepsize: 5.0000000000000001e-09
# ystepsize: 5.0000000000000001e-09
# zstepsize: 5.0000000000000001e-09
# xmin: -4.9999999999999998e-08
# ymin: -4.9999999999999998e-08
# zmin: -2.5000000000000001e-09
# xmax: 4.9999999999999998e-08
# ymax: 4.9999999999999998e-08
# zmax: 2.5000000000000001e-09
# valuedim: 3
# valuelabels: Magnetization_x Magnetization_y Magnetization_z
# valueunits: A/m A/m A/m
#
# End: Header
#
# Begin: Data Text
 0.000000000000000 -0.000000000000000 -0.000000000000000
 -0.000000000000000 0.000000000000000 0.000000000000000
 0.000000000000000 0.000000000000000 -0.000000000000000
 0.000000000000000 0.000000000000000 0.000000000000000
 0.000000000000000 0.000000000000000 0.000000000000000
 0.000000000000000 -0.000000000000000 0.000000000000000
 -0.000000000000000 -0.000000000000000 0.000000000000000
 266594.772359931 -750644.278615223 73894.4810698841
 266522.996446173 -750459.727395053 75997.9599956124
 251635.047366743 -755441.292281713 77383.8281068592
 226076.609115472 -763641.932880475 75765.1975343693
 193987.726749149 -772869.490745896 71003.6065624591
 162107.755054550 -780745.870956033 64474.4967896558
 -0.000000000000000 -0.000000000000000 -0.000000000000000
 -0.000000000000000 0.000000000000000 -0.000000000000000
 -0.000000000000000 -0.000000000000000 -0.000000000000000
 0.000000000000000 -0.000000000000000 -0.000000000000000
 0.000000000000000 0.000000000000000 0.000000000000000
 0.000000000000000 0.000000000000000 -0.000000000000000
 0.000000000000000 0.000000000000000 0.000000000000000
 0.000000000000000 0.000000000000000 -0.000000000000000
 -0.000000000000000 0.000000000000000 -0.000000000000000
 0.000000000000000 -0.000000000000000 -0.000000000000000
 -0.000000000000000 -0.000000000000000 0.000000000000000
 0.000000000000000 -0.000000000000000 -0.000000000000000
 295891.284294334 -742012.925783087 43187.5659128000
 305722.417594617 -737594.688346606 49878.6437563650
 280324.513409114 -746874.668417712 59969.9662987745
 256263.059565446 -755137.922902179 63999.7007582047
 231633.013243905 -762962.445924846 65072.6769383670
 202256.621680074 -771399.844172070 63518.0241968351
 166810.074144546 -780142.325255236 59601.6065995316
 125004.155561147 -788361.479728302 53480.2615274821
 86184.0061324154 -794178.727478179 43040.2823887892
 67901.9320050285 -796369.992606992 34411.6623417638
 -0.000000000000000 -0.000000000000000 -0.000000000000000
 0.000000000000000 -0.000000000000000 0.000000000000000
 0.000000000000000 -0.000000000000000 0.000000000000000
 0.000000000000000 0.000000000000000 -0.000000000000000
 -0.000000000000000 -0.000000000000000 0.000000000000000
 0.000000000000000 -0.000000000000000 0.000000000000000
 -0.000000000000000 -0.000000000000000 -0.000000000000000
 -0.000000000000000 -0.000000000000000 -0.000000000000000
 245075.673215362 -761467.841262603 10229.4242705725
 274427.486190427 -751301.073187690 15370.4993487074
 281119.053129708 -748422.507972027 28910.6819068422
 275578.599723794 -750032.716996752 38824.7190426840
 257004.345839862 -756143.288978253 46862.4876908498
 232573.405693092 -763740.142588916 51094.0853972219
 205505.676321411 -771389.576727512 52206.6845895201
 175417.827848376 -778876.012758273 50801.0080877655
 141812.621260136 -785906.107368883 47336.7811708725
 105604.633103857 -791884.066403102 42039.1108836377
 70890.4531927958 -796091.477184801 34826.7655667478
 39307.7180353210 -798574.396667152 27089.4128867884
 14844.7725557364 -799670.693099471 17504.7229506591
 13126.9495273969 -799812.900267408 11269.7720448202
 0.000000000000000 0.000000000000000 -0.000000000000000
 0.000000000000000 -0.000000000000000 0.000000000000000
 -0.000000000000000 -0.000000000000000 -0.000000000000000
 -0.000000000000000 -0.000000000000000 -0.000000000000000
 0.000000000000000 0.000000000000000 0.000000000000000
 191797.815611579 -776654.809407434 4572.19322968539
 218493.628343700 -769557.765054230 6432.77684546510
 234567.012421187 -764748.352645675 11758.9884566904
 239685.261162289 -762978.838783441 20353.5537496023
 234028.250073296 -764472.881505450 28495.4664882711
 219210.311845194 -768585.046369934 34983.7916364025
 198119.276022772 -774108.559543609 38790.3404152528
 173185.683714054 -780007.731309588 39933.1698436975
 145520.203563524 -785694.951059375 38824.1449955699
 115739.053264550 -790767.118706670 35942.1134851194
 84877.3979471385 -794853.820679668 31673.8230824277
 54805.3443443703 -797685.866616406 26336.9024702723
 27240.5995545312 -799274.176597692 20463.1463854421
 5147.32711330219 -799857.469130175 14196.2706461869
 -9990.75305894763 -799887.742593471 8932.19469312054
 -14456.8896356892 -799852.660067226 5169.19001808454
 0.000000000000000 0.000000000000000 -0.000000000000000
 0.000000000000000 0.000000000000000 -0.000000000000000
 0.000000000000000 0.000000000000000 -0.000000000000000
 -0.000000000000000 0.000000000000000 0.000000000000000
 171148.903523928 -781463.912554100 4712.34529663930
 182123.319581557 -778971.320535672 5897.30849669265
 189826.490213419 -777094.819186377 9462.85405923194
 191479.802701778 -776605.549113648 14808.9919703366
 185997.772770947 -777810.911444679 20371.9061907841
 173786.637945951 -780495.725823434 24992.5277391797
 156223.275213741 -784103.091180327 27868.0943544365
 134904.679628358 -788017.845597896 28785.4552442639
 111095.463439565 -791755.575779076 27944.6994238779
 85756.2865130344 -794974.086997838 25730.5329413860
 59827.3440878976 -797441.077387013 22548.1040273195
 34390.3099412192 -799040.026212839 18770.8042430702
 10514.2908620199 -799794.690560341 14761.5256378900
 -10686.5803191370 -799856.059203828 10774.1150914887
 -28618.4391214443 -799455.659933228 7185.59273678078
 -41535.4683124548 -798909.843441476 4226.92848087991
 -0.000000000000000 -0.000000000000000 0.000000000000000
 0.000000000000000 -0.000000000000000 -0.000000000000000
 -0.000000000000000 -0.000000000000000 -0.000000000000000
 119840.139956039 -790963.824742342 3816.91030564936
 140040.982285982 -787636.544154575 4146.99802465665
 143300.989432036 -787038.064827607 5992.57375549990
 143952.783887655 -786897.744539659 8338.80383454912
 141539.686887651 -787297.773713615 11346.0363709482
 135007.411012516 -788392.134239812 14520.3870641470
 124097.876151491 -790128.917004190 17204.9890576654
 109319.163536385 -792271.110981275 18862.8520696393
 91583.8561843660 -794506.794370585 19270.4692568163
 71847.0582454347 -796552.231766258 18507.8980348947
 50943.9681613658 -798198.631369872 16842.1194401652
 29593.4646507787 -799319.085398523 14602.2795354466
 8420.06825102388 -799864.110450657 12104.0184908741
 -12120.3745767536 -799850.421142292 9612.50844563757
 -31882.6405045445 -799331.270091999 7281.33830897004
 -51305.7584794694 -798337.076251533 5062.78865857046
 -70741.7383271159 -796862.629783101 2357.05613405162
 -79095.0133282472 -796079.894608167 -883.327376142474
 -0.000000000000000 0.000000000000000 0.000000000000000
 -0.000000000000000 0.000000000000000 0.000000000000000
 98219.3193885767 -793939.079279816 3701.84969477205
 101673.521925657 -793498.370894967 4778.10906803925
 100294.973224074 -793662.667721477 6363.03474858471
 96462.5213417268 -794124.468522580 7830.10026287163
 90697.3500048288 -794788.214235538 9256.63083337652
 82657.1672832689 -795648.085154088 10579.0967165808
 72117.4338686702 -796658.861934078 11564.3172776165
 59235.4317150929 -797714.183030550 11968.5346399883
 44472.2234456035 -798677.539020879 11679.4693953508
 28407.7674273955 -799423.124223693 10754.8689541549
 11595.0808371731 -799861.023894434 9375.31625743359
 -5506.26789443827 -799943.347310208 7766.73084471252
 -22557.4523733954 -799658.365794565 6136.72202303087
 -39378.6788626466 -799016.836654552 4627.56886348699
 -55975.3905213234 -798032.690260332 3252.83443208792
 -72371.5006665229 -796717.728078004 1796.56825617480
 -87528.8377120028 -795197.241327294 -223.504468617248
 -96863.9905965952 -794109.731579961 -2664.87067311496
 -0.000000000000000 -0.000000000000000 -0.000000000000000
 33454.0657861149 -799295.940483054 -2612.47194977638
 58131.9234033161 -797884.227956076 1199.27493436212
 58872.3123875264 -797818.103103210 4508.34725169596
 54324.4131184624 -798127.008200307 6491.29575372190
 47475.6482033090 -798554.244552755 7561.83406685062
 39204.9343207338 -798998.375742320 8035.46427040178
 29717.5152033550 -799407.021916830 8079.76486065340
 19060.0579256474 -799735.433671276 7742.75935877633
 7353.96455127488 -799935.307806198 7030.11595794014
 -5161.84062294126 -799960.998588571 5979.64368163330
 -18185.7971690284 -799779.521013861 4689.83455631870
 -31423.2091485347 -799375.812626967 3300.32025482867
 -44628.1005851184 -798751.857033983 1950.26227175617
 -57620.0122066849 -797921.916799821 740.866926167765
 -70293.0265967574 -796905.768737532 -293.538259944083
 -82606.4657614227 -795722.740256781 -1221.65979177641
 -94507.7416904550 -794394.825216554 -2269.01514537795
 -105774.025119244 -792967.136888093 -3869.80950102671
 -115792.088837099 -791547.288004631 -6714.38867333521
 -113955.731783898 -791767.549511099 -10873.7635979819
 7992.18273897815 -799959.714657888 761.537613270667
 14349.2307134856 -799866.801195237 2683.26734248799
 12819.5415842633 -799881.118713891 5084.80860837400
 6403.83232022006 -799945.775455895 6763.67221864863
 -2470.45848738017 -799961.074386911 7495.08509624632
 -12572.6609511901 -799867.178294872 7377.34933464447
 -23285.0035466219 -799633.982496695 6580.47462637178
 -34273.7701711562 -799248.039154827 5280.20694853430
 -45319.6572586972 -798706.965438769 3648.56486126918
 -56245.0516609112 -798018.200626970 1856.24129760561
 -66895.6960885236 -797198.194659499 65.3947037821614
 -77138.6235847592 -796270.748237306 -1590.04812767542
 -86854.0533330786 -795265.502116341 -3025.65088190896
 -95920.5219179151 -794217.514646353 -4218.16357728927
 -104200.035828276 -793167.837261934 -5209.07540860958
 -111511.420892844 -792166.537389173 -6113.92274286512
 -117541.478598397 -791285.602003271 -7148.20755312837
 -121578.161598859 -790660.489576558 -8645.27875779218
 -121799.667465703 -790598.550631472 -10898.2909054985
 -115035.331364604 -791574.992668222 -13262.8624414797
 -23604.2695682293 -799640.938730896 4148.20005802022
 -26446.9228758938 -799547.399986051 4951.30749832282
 -32688.0423138324 -799307.219795071 6281.74125258788
 -41730.4916406373 -798877.264487795 7326.82413658489
 -52513.1249566062 -798238.035508473 7642.66804624208
 -64135.9746423874 -797393.491601106 7084.93534682362
 -75913.9581501003 -796369.540836399 5711.86361950931
 -87352.9142839182 -795207.952534974 3712.22187391211
 -98120.7647410405 -793958.763512400 1340.65972382165
 -108013.397900236 -792673.832582337 -1140.61968849805
 -116914.455605780 -791402.987447622 -3510.20360998936
 -124748.572619354 -790193.772568334 -5620.98066686681
 -131431.478372022 -789094.932045444 -7413.14461897050
 -136828.305591204 -788161.605083819 -8905.00200666776
 -140732.584814844 -787458.518023557 -10169.6589655580
 -142862.940543359 -787059.193065805 -11314.0103371155
 -142846.150591885 -787044.736199829 -12472.3887536583
 -140139.744303532 -787509.032070790 -13797.6981221003
 -134007.535541210 -788546.762079536 -15361.7847938090
 -124912.984242703 -790006.891667687 -16907.3204601554
 -57202.0857525593 -797917.176817338 7490.01504714825
 -66810.0788707627 -797171.014200078 7401.85655781062
 -77819.4186261706 -796168.668132922 7719.45387542479
 -89610.5673389594 -794924.647161487 8046.83517767068
 -102165.554061525 -793410.073072694 7915.52336136921
 -115114.063039221 -791643.765497453 6992.92782859796
 -127875.962741375 -789696.607214898 5196.79769146151
 -139880.784733782 -787671.400604059 2670.34318045824
 -150690.254599827 -785679.548309503 -307.468397228794
 -160025.936971419 -783823.948790468 -3422.98100152159
 -167733.285130655 -782192.077569538 -6410.83822351946
 -173712.421576884 -780859.207586786 -9104.53276294313
 -177841.563420574 -779898.269120661 -11448.4995839322
 -179919.822578362 -779389.071060734 -13473.4314284570
 -179656.865670836 -779417.051331540 -15246.9902269060
 -176729.629944474 -780053.646548865 -16821.0108348763
 -170916.469212299 -781317.085401958 -18198.1485594619
 -162323.514202344 -783119.998017275 -19342.8395646712
 -151724.407971739 -785218.794276908 -20276.8128645720
 -141220.392905593 -787148.837194821 -21295.7444206994
 -91766.6671559309 -794639.929285830 11236.6179833494
 -109278.699669196 -792438.954215527 9933.25930455676
 -123821.957513736 -790307.387648795 9075.01323435677
 -137382.544234012 -788067.340616743 8712.24385810317
 -151216.991257493 -785535.582077486 8201.88059027296
 -165294.854428429 -782705.975431554 6997.65126479909
 -179034.463794506 -779694.055993832 4882.60398776507
 -191754.549489930 -776676.519488517 1943.40554629886
 -202895.389453149 -773841.764279688 -1544.27819837955
 -212078.383719338 -771359.357169717 -5244.16492062991
 -219068.676087778 -769370.095847598 -8864.01560275987
 -223691.902720521 -767992.585325748 -12219.7193889808
 -225741.057940756 -767338.509562519 -15250.7869357645
 -224907.795758274 -767523.932590433 -17986.0031155326
 -220780.951583284 -768659.033082764 -20471.0106797208
 -212960.091142664 -770800.512803688 -22684.1143111105
 -201339.143631255 -773862.759060663 -24474.0552596258
 -186674.957079906 -777494.860204519 -25577.3875673536
 -171670.325485771 -780935.189166849 -25875.2713714759
 -161664.675630011 -783057.713212482 -26175.3783522385
 -123414.698686586 -790275.261876066 15291.2594253589
 -155504.238147004 -784651.059606278 11880.5124917340
 -170373.338380555 -781584.231443539 9950.61444723094
 -184458.081939001 -778389.505163416 9219.23309376188
 -199262.557250036 -774739.922644320 8513.84397611843
 -214503.029358486 -770673.577304246 7119.52534286547
 -229359.595214317 -766401.704756772 4754.26430041413
 -242980.563024927 -762206.179849119 1478.30710677765
 -254694.998335548 -758369.626231036 -2442.91486817040
 -264038.796068728 -755141.690120137 -6673.98030260199
 -270692.583461121 -752732.607203674 -10915.4620380467
 -274390.170360047 -751322.728307548 -14973.0537395324
 -274819.466569167 -751080.261883181 -18780.3355702325
 -271538.602919486 -752174.663978811 -22362.0659353446
 -263962.482748225 -754759.015803526 -25741.7125437616
 -251499.631243339 -758891.924991483 -28826.7526299068
 -233916.501166770 -764396.719480683 -31316.5408221666
 -212045.185070647 -770692.987910169 -32697.9796692669
 -189596.311986069 -776532.118987835 -32420.7751533665
 -183733.230046526 -777997.475008447 -31016.5932550683
 0.000000000000000 0.000000000000000 -0.000000000000000
 -197861.744451954 -775080.869356005 10018.7843957175
 -213686.423471039 -770866.706848339 10130.7796814350
 -229287.789908860 -766375.512417204 9781.78746341331
 -245762.664125276 -761261.236049406 9057.78176913169
 -262665.193122664 -755612.900858671 7492.68828775062
 -278914.736973288 -749788.451749950 4883.35146530401
 -293575.120556355 -744185.408621983 1313.84338960491
 -305982.501858130 -739165.675734714 -2968.56401032468
 -315665.419745499 -735048.718326962 -7663.18881329503
 -322244.889017808 -732121.704375152 -12491.6566044474
 -325365.452962061 -730643.162765258 -17259.5110931344
 -324618.828453079 -730851.048797544 -21894.3071431830
 -319437.908928070 -732981.270063433 -26417.4199319020
 -309039.067357107 -737254.643652396 -30829.2922401483
 -292569.402878000 -743761.512450625 -34956.5029253335
 -269634.273260785 -752216.406370846 -38312.3566184387
 -241645.212119889 -761574.743514605 -40143.5113087695
 -213731.424243146 -769895.393733406 -39748.7232383601
 0.000000000000000 -0.000000000000000 0.000000000000000
 -0.000000000000000 -0.000000000000000 -0.000000000000000
 -226528.161944880 -767177.725449247 11105.3779941877
 -253479.778674496 -758695.847276486 11340.7728371635
 -271402.374444006 -752476.750996896 10931.1644078347
 -290785.957473408 -745212.440148187 10096.8304262879
 -310053.512305463 -737427.242555088 8239.01964096607
 -327847.880719157 -729717.394684952 5318.92866702004
 -343446.734268987 -722524.842488857 1480.77899130768
 -356445.796913287 -716196.148013578 -3077.56939227017
 -366481.276600386 -711073.162120373 -8150.58362848634
 -373118.385278567 -707530.837297327 -13519.7943940889
 -375902.941835012 -705929.336906354 -18993.4097712419
 -374373.196789557 -706572.917468621 -24483.0926446885
 -367907.045453848 -709749.323438717 -30005.0626345686
 -355555.334747101 -715764.059778364 -35527.6605262895
 -336183.525435746 -724787.828220296 -40782.8553352930
 -309007.387509225 -736537.440454247 -45022.5862632356
 -276550.301780758 -749196.361721283 -47167.1725733538
 -253555.334430769 -757336.093437187 -46386.7864698631
 -0.000000000000000 0.000000000000000 0.000000000000000
 0.000000000000000 -0.000000000000000 -0.000000000000000
 0.000000000000000 0.000000000000000 -0.000000000000000
 -286639.594378998 -746793.262626385 11728.8460678103
 -310572.627011420 -737147.269133094 12591.5432274096
 -335122.033211208 -726330.901301812 11689.5111310131
 -357189.485973021 -715771.477107163 9320.06814138383
 -376167.152745893 -706018.627662409 5997.54856075043
 -392195.326645038 -697265.435657799 1933.38944143274
 -405458.561845709 -689634.385936684 -2787.17773780311
 -415755.577708603 -683433.120908486 -8152.84303003740
 -422471.760364878 -679205.667501297 -14045.3881512329
 -424991.589484311 -677474.860458601 -20247.5261253845
 -422910.528877855 -678555.789676078 -26621.8868852079
 -415727.592692586 -682692.734559914 -33184.3163728609
 -402424.427590605 -690266.520104214 -39833.5449287782
 -381909.884975627 -701435.374744904 -46187.1715347387
 -352860.777846241 -716157.642919659 -51063.7047765288
 -319200.042532815 -731660.400598271 -52767.3293186908
 0.000000000000000 -0.000000000000000 0.000000000000000
 -0.000000000000000 0.000000000000000 0.000000000000000
 -0.000000000000000 0.000000000000000 -0.000000000000000
 -0.000000000000000 -0.000000000000000 0.000000000000000
 -315873.789389079 -734866.758856009 13949.7636341186
 -350315.089457877 -719065.810941120 14956.5247871938
 -380176.809776781 -703761.097561625 13634.9135239699
 -403991.006445874 -690421.515322904 10459.3446293353
 -423145.136022356 -678898.088558573 6751.23782265067
 -438802.798519576 -668913.711536995 2559.40016205182
 -452011.216040932 -660061.455714303 -2176.06376578794
 -462601.747046797 -652639.914368905 -7795.24225409983
 -469359.263631649 -647686.258411326 -14296.5837980448
 -471375.213723276 -646026.523836247 -21333.9726115920
 -468597.055077608 -647762.357759702 -28648.3479835112
 -461003.654131483 -652806.149748204 -36328.5249954539
 -447238.519255271 -661840.546418663 -44099.8640655295
 -427579.900644514 -674178.930151978 -51557.7220594893
 -398710.958204107 -691229.450976063 -56845.5619313728
 -371133.816130153 -706290.276413504 -58427.1851829882
 -0.000000000000000 -0.000000000000000 -0.000000000000000
 0.000000000000000 0.000000000000000 0.000000000000000
 0.000000000000000 -0.000000000000000 -0.000000000000000
 -0.000000000000000 0.000000000000000 0.000000000000000
 0.000000000000000 0.000000000000000 -0.000000000000000
 -384321.227766426 -701458.185863957 15925.0548681335
 -422410.475646413 -679215.067909774 15371.4536883134
 -446704.376858083 -663574.569999881 11135.0682667571
 -466541.054052318 -649833.835197116 7445.23449996846
 -481254.403890793 -639049.130468947 3226.07851739296
 -494686.550030305 -628715.699736892 -1336.45930167053
 -506149.909238664 -619482.991249428 -7286.48957684560
 -512884.269405340 -613787.050759822 -14669.1007260560
 -513561.968577105 -612972.952980434 -22765.3979902615
 -509179.799623189 -616257.440238580 -31027.3912258483
 -501354.982817935 -622133.291301958 -39916.7766411712
 -485146.020534009 -634253.552157144 -48536.2785559464
 -467836.053255995 -646437.552327835 -56990.5098613008
 -439122.674180248 -665945.631363141 -60726.3788574206
 -0.000000000000000 0.000000000000000 0.000000000000000
 0.000000000000000 0.000000000000000 0.000000000000000
 0.000000000000000 -0.000000000000000 -0.000000000000000
 -0.000000000000000 0.000000000000000 0.000000000000000
 -0.000000000000000 0.000000000000000 0.000000000000000
 -0.000000000000000 0.000000000000000 -0.000000000000000
 -0.000000000000000 -0.000000000000000 0.000000000000000
 -0.000000000000000 0.000000000000000 0.000000000000000
 -475140.088594573 -643543.554296921 9674.18902168797
 -502768.882525806 -622222.271940081 7930.64092461948
 -515566.837660934 -611700.767011984 3606.59690773220
 -531668.833130989 -597769.275558143 -380.888207102487
 -545529.203144977 -585107.155133402 -6892.42538618181
 -552069.300359521 -578771.212191436 -15600.3698355418
 -549670.686576891 -580720.783859547 -25010.1481731576
 -540706.028558996 -588639.290466051 -33775.3815608711
 -534664.668860491 -593494.801706164 -43561.5911103177
 -512042.598530833 -612633.095627701 -49930.6261868652
 0.000000000000000 0.000000000000000 -0.000000000000000
 -0.000000000000000 0.000000000000000 -0.000000000000000
 -0.000000000000000 0.000000000000000 0.000000000000000
 0.000000000000000 -0.000000000000000 0.000000000000000
 0.000000000000000 0.000000000000000 -0.000000000000000
 -0.000000000000000 -0.000000000000000 0.000000000000000
 -0.000000000000000 0.000000000000000 -0.000000000000000
 -0.000000000000000 -0.000000000000000 -0.000000000000000
 -0.000000000000000 0.000000000000000 -0.000000000000000
 0.000000000000000 -0.000000000000000 0.000000000000000
 0.000000000000000 -0.000000000000000 0.000000000000000
 0.000000000000000 -0.000000000000000 0.000000000000000
 -534909.589452669 -594866.354726379 2398.15056386915
 -560631.010125012 -570694.979528762 332.906706936080
 -577794.014239698 -553268.500265005 -6931.35796851151
 -583767.226904624 -546737.502962736 -17144.3181887780
 -577139.608616278 -553300.868975526 -27713.1838152535
 -557169.330592719 -573046.235709070 -34356.2044837054
 0.000000000000000 0.000000000000000 0.000000000000000
 -0.000000000000000 -0.000000000000000 -0.000000000000000
 0.000000000000000 0.000000000000000 -0.000000000000000
 -0.000000000000000 0.000000000000000 0.000000000000000
 0.000000000000000 0.000000000000000 -0.000000000000000
 -0.000000000000000 0.000000000000000 0.000000000000000
 -0.000000000000000 0.000000000000000 0.000000000000000
# End: Data Text
# End: Segment
