# ODT 1.0
# Table Start
# Title: mmArchive Data Table, Tue Apr 13 13:37:40 CEST 2021
# Columns: {Anv_SpinTEvolve:evolver:Total energy} {Anv_SpinTEvolve:evolver:Energy calc count} {Anv_SpinTEvolve:evolver:Max dm/dt} Anv_SpinTEvolve:evolver:dE/dt {Anv_SpinTEvolve:evolver:Delta E} {Anv_SpinTEvolve:evolver:average u} Oxs_UniformExchange:exchange:Energy {Oxs_UniformExchange:exchange:Max Spin Ang} {Oxs_UniformExchange:exchange:Stage Max Spin Ang} {Oxs_UniformExchange:exchange:Run Max Spin Ang} Oxs_Demag:demag:Energy Oxs_TimeDriver::Iteration {Oxs_TimeDriver::Stage iteration} Oxs_TimeDriver::Stage Oxs_TimeDriver::mx   Oxs_TimeDriver::my   Oxs_TimeDriver::mz   {Oxs_TimeDriver::Last time step} {Oxs_TimeDriver::Simulation time}
# Units:                     J                                        {}                                    deg/ns                             J/s                              J                                 m/s                                  J                                      deg                                            deg                                              deg                                 J                       {}                            {}                          {}                   {}                   {}                   {}                          s                                 s                
                     1.59123569595e-18                        37                                      3960.6305219599999               1.04686020866e-09               8.7041092773100009e-22                400                                 1.28112216351e-18                       59.9763474919                                  59.9763474919                                    59.9763474919                       3.1011353244499998e-19     6                             6                           0                    -0.00109130613417    -0.016361588417699999  0.029159083983499999        1.0734675561500001e-12              2e-12                     
                     1.5939780130699999e-18                      44                                      4433.5863150599998               1.62650668436e-09               2.74231711346e-21                  400                                 1.28183045213e-18                       61.729535879499998                             61.729535879499998                               61.729535879499998                  3.1214756093400002e-19     8                             1                           1                    -0.0021888716676899999 -0.033527019490399997  0.029129536996099999        2e-12                            3.9999999999999999e-12       
                     1.59750596102e-18                        51                                      5088.37383486                    1.8440005455899999e-09             3.5279479500199999e-21                400                                 1.2821971689500001e-18                     62.165505272600001                             62.165505272600001                               62.165505272600001                  3.1530879206400002e-19     10                            1                           2                    -0.0033579820295800001 -0.051373836066800002  0.029083216180299999        2e-12                            6.0000000000000003e-12       
                     1.6011854210199999e-18                      58                                      5484.3167769000001               1.8182942276600001e-09             3.6794599978799998e-21                400                                 1.2819807246e-18                        61.036503301899998                             62.165505272600001                               62.165505272600001                  3.1920469641600002e-19     12                            1                           3                    -0.0046648882325900001 -0.069789438413000005  0.029011464748699999        2e-12                            7.9999999999999998e-12       
                     1.6048496904200001e-18                      65                                      5510.9188675699997               1.89085577673e-09               3.6642694017400001e-21                400                                 1.28158611282e-18                       58.234442971900002                             61.036503301899998                               62.165505272600001                  3.2326357759300002e-19     14                            1                           4                    -0.0061679040906899999 -0.088646131755300006  0.028899316880400001        2e-12                            9.9999999999999994e-12       
                     1.60896912425e-18                        72                                      5105.7860245800002               2.2786347424899998e-09             4.1194338356400002e-21                400                                 1.28168398162e-18                       60.495277609399999                             60.495277609399999                               62.165505272600001                  3.27285142636e-19       16                            1                           5                    -0.0079055302442799999 -0.107802491781       0.028743083687000001        2e-12                            1.2000000000000001e-11       
                     1.61407708309e-18                        79                                      4640.6364727500004               2.8269040456700001e-09             5.1079588346400002e-21                400                                 1.2823322216499999e-18                     62.043669123900003                             62.043669123900003                               62.165505272600001                  3.3174486144100001e-19     18                            1                           6                    -0.0098943152172300004 -0.12712493070399999  0.028559539360899999        2e-12                            1.4e-11                   
                     1.62014218679e-18                        86                                      5284.3342044999999               3.1774711126999998e-09             6.0651037027799996e-21                400                                 1.28284376514e-18                       60.750944144199998                             62.043669123900003                               62.165505272600001                  3.3729842165299998e-19     20                            1                           7                    -0.0121399482285     -0.14650539992        0.028373710532099999        2e-12                            1.6e-11                   
                     1.62651141604e-18                        93                                      5808.0960400599997               3.1262409281500002e-09             6.3692292461400001e-21                400                                 1.28244768287e-18                       56.692104163800003                             60.750944144199998                               62.165505272600001                  3.4406373316899998e-19     22                            1                           8                    -0.0146530999419     -0.16585559427900001  0.0281975783994            2e-12                            1.7999999999999999e-11       
                     1.6324825695299999e-18                      100                                     6058.8966956200002               2.83407065103e-09               5.9711534907399997e-21                400                                 1.2810580604099999e-18                     54.6137756432                                  56.692104163800003                               62.165505272600001                  3.5142450911500002e-19     24                            1                           9                    -0.017454779020500001 -0.18508865776799999  0.028022512882699999        2e-12                            1.9999999999999999e-11       
                     1.6379465915599999e-18                      107                                     5890.2159545699997               2.6803633041799999e-09             5.4640220305999998e-21                400                                 1.2793587221199999e-18                     59.555303274000003                             59.555303274000003                               62.165505272600001                  3.5858786943500001e-19     26                            1                           10                   -0.020563867270400001 -0.20410936146899999  0.027835342015999999        2e-12                            2.2000000000000002e-11       
                     1.6434467915600001e-18                      114                                     5276.8289861000003               2.8708243808299999e-09             5.5002000015399997e-21                400                                 1.27807450966e-18                       62.707423036599998                             62.707423036599998                               62.707423036599998                  3.65372281901e-19       28                            1                           11                   -0.023979015593599998 -0.222825094675       0.027642820595199999        2e-12                            2.4000000000000001e-11       
                     1.6495492650800001e-18                      121                                     5084.8793050100003               3.22476126731e-09               6.1024735158200002e-21                400                                 1.2772182775100001e-18                     63.2339569819                                  63.2339569819                                    63.2339569819                       3.7233098757000001e-19     30                            1                           12                   -0.0276736961152     -0.24116860953200001  0.027478114787400001        2e-12                            2.6000000000000001e-11       
                     1.65622307886e-18                        128                                     5574.1973042700001               3.3840623888000001e-09             6.6738137884999997e-21                400                                 1.27609721098e-18                       60.835422292799997                             63.2339569819                                    63.2339569819                       3.8012586788399998e-19     32                            1                           13                   -0.031608197016100001 -0.25910985936100001  0.027381685826699999        2e-12                            2.8e-11                   
                     1.6628577730000001e-18                      135                                     5879.5202182100002               3.1812591732300001e-09             6.6346941375799998e-21                400                                 1.2740273091700001e-18                     60.865111775899997                             60.865111775899997                               63.2339569819                       3.8883046382899998e-19     34                            1                           14                   -0.035744965801399999 -0.27664429253700001  0.027375948247100001        2e-12                            3e-11                     
                     1.6688768112300001e-18                      142                                     5875.4023924900002               2.8080742091599999e-09             6.01903823027e-21                  400                                 1.27101975566e-18                       61.366595676099998                             61.366595676099998                               63.2339569819                       3.9785705557700001e-19     36                            1                           15                   -0.040052546728699998 -0.29376856570999998  0.027457373069799999        2e-12                            3.1999999999999999e-11       
                     1.67431257752e-18                        149                                     5493.7884716999997               2.6179416510900002e-09             5.4357662869200003e-21                400                                 1.2677505533299999e-18                     59.941825643500003                             61.366595676099998                               63.2339569819                       4.0656202419100002e-19     38                            1                           16                   -0.044496834760500002 -0.31046604071900002  0.027611663246999998        2e-12                            3.3999999999999999e-11       
                     1.6798043610499999e-18                      156                                     4829.2923242099996               2.7836722435100001e-09             5.4917835330599999e-21                400                                 1.26495901591e-18                       59.732342190700003                             59.941825643500003                               63.2339569819                       4.1484534514499999e-19     40                            1                           17                   -0.049031751678800001 -0.32671397498900001  0.027836106928399999        2e-12                            3.5999999999999998e-11       
                     1.6859972088400001e-18                      163                                     4784.7959200599998               3.0826659531599999e-09             6.1928477899899998e-21                400                                 1.2627460639000001e-18                     60.908762819499998                             60.908762819499998                               63.2339569819                       4.2325114494300002e-19     42                            1                           18                   -0.053601616444899997 -0.34250453144199999  0.028146835659399998        2e-12                            3.7999999999999998e-11       
                     1.6929801626000001e-18                      170                                     5124.9954666000003               3.1120007448499998e-09             6.9829537628200005e-21                400                                 1.2605503834099999e-18                     63.244103876600001                             63.244103876600001                               63.244103876600001                  4.32429779191e-19       44                            1                           19                   -0.058155802866099997 -0.35785739197600003  0.028564245202199998        2e-12                            3.9999999999999998e-11       
                     1.7003605761500001e-18                      177                                     5353.5280745                     2.5344295192900001e-09             7.3804135450500004e-21                400                                 1.2578171820599999e-18                     64.024914933199994                             64.024914933199994                               64.024914933199994                  4.4254339408900002e-19     46                            1                           20                   -0.062663995717599993 -0.37281146508399998  0.029091358947799999        2e-12                            4.1999999999999997e-11       
                     1.70593867258e-18                        190                                     5689.3343842599998               2.6102701643899999e-09             1.3111711328199999e-21                400                                 1.2528478256899999e-18                     62.748599137600003                             64.024914933199994                               64.024914933199994                  4.5309084688400004e-19     49                            2                           21                   -0.0671184988579     -0.38740647533799999  0.029705459751800001        5.05953386891e-13                4.4000000000000003e-11       
                     1.71128132318e-18                        203                                     5673.2210311099998               2.61217714612e-09               1.3323161670299999e-21                400                                 1.2478945904399999e-18                     59.652271511400002                             62.748599137600003                               64.024914933199994                  4.6338673274000005e-19     52                            2                           22                   -0.0715189805953     -0.40165239358100002  0.030371563158299999        5.1437163324200004e-13              4.6000000000000003e-11       
                     1.7168005378000001e-18                      216                                     5225.4265740199999               2.89431270293e-09               1.46042677767e-21                  400                                 1.2435958784199999e-18                     60.974225985799997                             60.974225985799997                               64.024914933199994                  4.7320465938600001e-19     55                            2                           23                   -0.075856046019199999 -0.41554711335599998  0.031066149345300002        5.1437163324200004e-13              4.8000000000000002e-11       
                     1.72305626767e-18                        229                                     4663.44322594                    3.3328312596699998e-09             1.68598841225e-21                  400                                 1.24004263688e-18                       62.605601854                                   62.605601854                                     64.024914933199994                  4.8301363078699996e-19     58                            2                           24                   -0.080106329082200001 -0.42909501519600002  0.031787665490700001        5.1437163324200004e-13              5.0000000000000002e-11       
                     1.7300404035399999e-18                      242                                     5236.3969018999996               3.5833974020800001e-09             1.8362305216699999e-21                400                                 1.23650487006e-18                       61.403326410600002                             62.605601854                                     64.024914933199994                  4.9353553347400001e-19     61                            2                           25                   -0.084244467289300004 -0.44232304499000002  0.032544094718099999        5.1437163324200004e-13              5.2000000000000001e-11       
                     1.7371455136899999e-18                      255                                     5695.56191881                    3.4575068489499999e-09             1.79579638719e-21                  400                                 1.2321396074900001e-18                     57.8080256752                                  61.403326410600002                               64.024914933199994                  5.0500590620000003e-19     64                            2                           26                   -0.088258639175799999 -0.455273762134       0.033332476265700003        5.1437163324200004e-13              5.4000000000000001e-11       
                     1.74372885694e-18                        268                                     5895.1217742899998               3.1166669176299998e-09             1.6255757635900001e-21                400                                 1.22678402099e-18                       55.737785681799998                             57.8080256752                                    64.024914933199994                  5.16944835954e-19       67                            2                           27                   -0.092153663420000004 -0.46798274586900002  0.034130825133499999        5.1437163324200004e-13              5.6e-11                   
                     1.74971214724e-18                        281                                     5713.6868727700003               2.91580070246e-09               1.50421249739e-21                  400                                 1.2210638924900001e-18                     59.518419212700003                             59.518419212700003                               64.024914933199994                  5.2864825474599998e-19     70                            2                           28                   -0.095938853505099994 -0.480462996483       0.034909562716900003        5.1437163324200004e-13              5.8e-11                   
                     1.7556296723799999e-18                      294                                     5159.1759580500002               3.05669184041e-09               1.55438641901e-21                  400                                 1.2157167136800001e-18                     62.992289975699997                             62.992289975699997                               64.024914933199994                  5.3991295870499998e-19     73                            2                           29                   -0.099613595634400004 -0.49271087616199999  0.035650227696099997        5.1437163324200004e-13              6e-11                     
                     1.7620802328200001e-18                      307                                     4584.6747580399997               3.4022694676599999e-09             1.72684271678e-21                  400                                 1.2108301416399999e-18                     64.211880198700001                             64.211880198700001                               64.211880198700001                  5.5125009117700002e-19     76                            2                           30                   -0.103164477388      -0.50472687952499995  0.036352419594799998        5.1437163324200004e-13              6.2000000000000006e-11       
                     1.7691600075499998e-18                      320                                     5051.3937342199997               3.6334939019700001e-09             1.8615587123999999e-21                400                                 1.20577536639e-18                       62.838340534099999                             64.211880198700001                               64.211880198700001                  5.6338464116400003e-19     79                            2                           31                   -0.10657560999       -0.51653037384599998  0.037023379005299999        5.1437163324200004e-13              6.3999999999999999e-11       
                     1.7763897700399998e-18                      333                                     5429.1889590800001               3.5380024323799999e-09             1.8354701634e-21                   400                                 1.1997804387099999e-18                     59.032985451599998                             62.838340534099999                               64.211880198700001                  5.7660933132900005e-19     82                            2                           32                   -0.109841600787      -0.52815620918299999  0.037662125389899999        5.1437163324200004e-13              6.6000000000000005e-11       
                     1.7831309927999999e-18                      346                                     5597.7467060199997               3.1786721554699998e-09             1.6618734354900001e-21                400                                 1.1925733280000001e-18                     56.829588989000001                             59.032985451599998                               64.211880198700001                  5.9055766480099999e-19     85                            2                           33                   -0.112971758154      -0.53963816143900001  0.038252268020700003        5.1437163324200004e-13              6.7999999999999998e-11       
                     1.7891117294900001e-18                      359                                     5462.1991093500001               2.8288018119999999e-09             1.4730250650499999e-21                400                                 1.1845521734399999e-18                     57.418374551699998                             57.418374551699998                               64.211880198700001                  6.0455955605699998e-19     88                            2                           34                   -0.115982649492      -0.55099364202500001  0.038769160561999999        5.1437163324200004e-13              7.0000000000000004e-11       
                     1.7946168202699999e-18                      372                                     5017.5163938899996               2.7255465777700001e-09             1.40075525976e-21                  400                                 1.1763626798199999e-18                     60.749190327900003                             60.749190327900003                               64.211880198700001                  6.1825414045600002e-19     91                            2                           35                   -0.118886116816      -0.56222270363500004  0.039195299969000001        5.1437163324200004e-13              7.1999999999999997e-11       
                     1.80017850966e-18                        385                                     4362.4314397500002               2.8609000337199998e-09             1.4593448634200001e-21                400                                 1.1682689586799999e-18                     62.273130760599997                             62.273130760599997                               64.211880198700001                  6.3190955098100004e-19     94                            2                           36                   -0.121682930408      -0.57332190878300004  0.039530338823399999        5.1437163324200004e-13              7.4000000000000003e-11       
                     1.80606528184e-18                        398                                     4527.0797033899998               3.0028489368800001e-09             1.53979899078e-21                  400                                 1.15988276587e-18                       61.668113130899997                             62.273130760599997                               64.211880198700001                  6.4618251596999998e-19     97                            2                           37                   -0.12436691823899999 -0.58429999315900005  0.039787051140600001        5.1437163324200004e-13              7.5999999999999996e-11       
                     1.8120208411699998e-18                      411                                     4863.1109365700004               2.8975725404199998e-09             1.5066729521300001e-21                400                                 1.15043635011e-18                       59.388058933099998                             61.668113130899997                               64.211880198700001                  6.6158449105500004e-19     100                           2                           38                   -0.12693544842999999 -0.59518159735700005  0.039977680351099998        5.1437163324200004e-13              7.8000000000000002e-11       
                     1.81743254551e-18                        424                                     5065.2282841599999               2.4659700104799998e-09             1.30436350762e-21                  400                                 1.1393208226899999e-18                     60.642692537099997                             60.642692537099997                               64.211880198700001                  6.7811172282000004e-19     103                           2                           39                   -0.12939713016900001 -0.60599669247800003  0.040102674809800003        5.1437163324200004e-13              7.9999999999999995e-11       
                     1.8217620220699999e-18                      437                                     5038.0985784300001               1.8536497858799999e-09             9.94788901186e-22                  400                                 1.12644861514e-18                       60.537839134800002                             60.700032934399999                               64.211880198700001                  6.9531340693299997e-19     106                           2                           40                   -0.131770274725      -0.61676491537599998  0.040150995140999998        5.1437163324200004e-13              8.2000000000000001e-11       
                     1.8248867463599998e-18                      450                                     4741.8310438500002               1.2959052487600001e-09             6.9905395945500001e-22                400                                 1.1121566004499999e-18                     59.099034366399998                             60.537839134800002                               64.211880198700001                  7.1273014590799996e-19     109                           2                           41                   -0.13407357006100001 -0.62748776485199997  0.040111623989500002        5.1437163324200004e-13              8.3999999999999994e-11       
                     1.8270599543800001e-18                      463                                     4229.3855204700003               9.0120288770400005e-10             4.8615582966700001e-22                400                                 1.0967350806900001e-18                     58.275818206099999                             59.099034366399998                               64.211880198700001                  7.3032487369700003e-19     112                           2                           42                   -0.13631709911500001 -0.63815489920000001  0.039986097764500003        5.1437163324200004e-13              8.6e-11                   