# OOMMF OVF 2.0
#
# Segment count: 1
#
# Begin: Segment
# Begin: Header
#
# Title: Oxs_TimeDriver::Magnetization
# Desc: Oxs vector field output
# Desc:  MIF source file: C:/Users/Victor H. González/Documents/GitHub/Intro-to-magnetism-in-python/domain_wall_conversion_thin_film/drive-3/domain_wall_conversion_thin_film.mif
# Desc:  Iteration: 199, State id: 1052
# Desc:  Stage: 71, Stage iteration: 2
# Desc:  Stage simulation time: 2e-12 s
# Desc:  Total simulation time: 1.44e-10 s
# meshunit: m
# meshtype: rectangular
# xbase: -4.7499999999999995e-08
# ybase: -4.7499999999999995e-08
# zbase: 0
# xnodes: 20
# ynodes: 20
# znodes: 1
# xstepsize: 5.0000000000000001e-09
# ystepsize: 5.0000000000000001e-09
# zstepsize: 5.0000000000000001e-09
# xmin: -4.9999999999999998e-08
# ymin: -4.9999999999999998e-08
# zmin: -2.5000000000000001e-09
# xmax: 4.9999999999999998e-08
# ymax: 4.9999999999999998e-08
# zmax: 2.5000000000000001e-09
# valuedim: 3
# valuelabels: Magnetization_x Magnetization_y Magnetization_z
# valueunits: A/m A/m A/m
#
# End: Header
#
# Begin: Data Text
 0.000000000000000 -0.000000000000000 -0.000000000000000
 -0.000000000000000 0.000000000000000 0.000000000000000
 0.000000000000000 0.000000000000000 -0.000000000000000
 0.000000000000000 0.000000000000000 0.000000000000000
 0.000000000000000 0.000000000000000 0.000000000000000
 0.000000000000000 -0.000000000000000 0.000000000000000
 -0.000000000000000 -0.000000000000000 0.000000000000000
 467135.492372926 -649348.416400312 11448.4009324859
 494540.501302527 -628742.925092749 10584.2674408218
 515915.764916578 -611277.777456052 13053.8231538644
 529303.314982748 -599540.416387820 19730.4299444760
 531765.986226199 -596820.087583742 32104.8119354654
 518071.478256585 -607815.279268294 46503.0074838346
 -0.000000000000000 -0.000000000000000 -0.000000000000000
 -0.000000000000000 0.000000000000000 -0.000000000000000
 -0.000000000000000 -0.000000000000000 -0.000000000000000
 0.000000000000000 -0.000000000000000 -0.000000000000000
 0.000000000000000 0.000000000000000 0.000000000000000
 0.000000000000000 0.000000000000000 -0.000000000000000
 0.000000000000000 0.000000000000000 0.000000000000000
 0.000000000000000 0.000000000000000 -0.000000000000000
 -0.000000000000000 0.000000000000000 -0.000000000000000
 0.000000000000000 -0.000000000000000 -0.000000000000000
 -0.000000000000000 -0.000000000000000 0.000000000000000
 0.000000000000000 -0.000000000000000 -0.000000000000000
 405677.829490126 -689510.207930270 1082.50641343485
 434070.711510441 -671994.144098997 2547.09746094076
 446511.667412805 -663760.691071132 7005.41597693557
 461998.609298664 -653049.914126683 9115.62752819333
 478665.149613840 -640870.265108984 12844.3701402653
 491696.834343360 -630702.814647801 21170.3257428822
 497749.153946425 -625160.199550840 37689.5826876959
 494457.341975132 -625258.225940999 67558.0332751269
 483342.752688550 -625557.959097848 122707.062685036
 444985.638514732 -644241.362769588 164136.674793965
 -0.000000000000000 -0.000000000000000 -0.000000000000000
 0.000000000000000 -0.000000000000000 0.000000000000000
 0.000000000000000 -0.000000000000000 0.000000000000000
 0.000000000000000 0.000000000000000 -0.000000000000000
 -0.000000000000000 -0.000000000000000 0.000000000000000
 0.000000000000000 -0.000000000000000 0.000000000000000
 -0.000000000000000 -0.000000000000000 -0.000000000000000
 -0.000000000000000 -0.000000000000000 -0.000000000000000
 312382.860274844 -736458.993801077 -6715.58307308842
 349832.292892198 -719429.443343919 -6216.34133928470
 373962.116513835 -707211.977492496 -1885.28609136963
 391426.104610650 -697698.867373556 1376.62449100607
 404324.910912595 -690288.949194524 4746.89745428028
 417098.853831765 -682614.819655677 8096.54980073600
 430448.188715109 -674182.085057671 13887.8730975504
 441395.493803195 -666739.103179576 25079.6001070509
 446264.854953618 -662429.032498084 45116.0297109361
 440616.039737742 -663134.777336030 78165.0344676076
 416517.176140757 -671059.203454351 127251.669690187
 356340.924412818 -693064.274799712 180784.558480442
 249168.758034705 -724661.539919298 229740.250241950
 167522.259885098 -744801.667059961 239179.366141171
 0.000000000000000 0.000000000000000 -0.000000000000000
 0.000000000000000 -0.000000000000000 0.000000000000000
 -0.000000000000000 -0.000000000000000 -0.000000000000000
 -0.000000000000000 -0.000000000000000 -0.000000000000000
 0.000000000000000 0.000000000000000 0.000000000000000
 245752.261819486 -761297.192175980 -5693.06556925960
 278305.102954254 -750003.877538479 -6360.29455828399
 303794.193412899 -740058.245396311 -4783.45790613953
 323271.666392994 -731773.102872406 -1885.63516848838
 337991.874899703 -725093.712926545 774.581293825043
 350477.225151647 -719133.415375628 3584.06754750826
 362374.733035914 -713177.966009619 7857.58585904723
 373233.549915313 -707419.203861201 15962.0558199680
 380070.190146444 -703300.329974683 30253.8661917513
 378513.069173326 -702820.065896266 52647.9955796711
 363002.438098912 -707888.703965154 84396.7578333445
 325903.917725825 -719973.711299087 124195.376118344
 258928.619828159 -739111.705876245 163309.081408819
 164300.425061428 -759887.378120514 188617.451201542
 68555.9284036284 -775050.056575220 186004.017385283
 -8291.58499825162 -784578.573543854 156101.606507133
 0.000000000000000 0.000000000000000 -0.000000000000000
 0.000000000000000 0.000000000000000 -0.000000000000000
 0.000000000000000 0.000000000000000 -0.000000000000000
 -0.000000000000000 0.000000000000000 0.000000000000000
 217970.141759376 -769722.694728310 -3998.81502286543
 235591.793656989 -764512.701501830 -4103.16997656072
 252527.838515050 -759092.798305000 -2795.41345803148
 266841.864764098 -754184.694881871 -930.169424237217
 278852.213364773 -749827.105680038 868.728418849438
 289826.668592045 -745647.034662309 3316.90701426468
 300068.825802693 -741544.662848809 8379.30676368052
 307702.760228460 -738225.882334497 18481.2878133429
 308622.082110049 -737234.671044232 35177.4109957057
 297607.953714744 -740286.222354583 58359.3598123194
 269401.993859011 -748340.735695431 86073.8578408687
 219559.452846930 -760795.387761260 113947.464327869
 146944.579342466 -774855.502443759 134187.335223917
 59174.5971519010 -785762.778965693 138113.077744366
 -24516.3829945185 -790250.558227841 122077.852968717
 -81960.5510678745 -789958.507667064 96166.6482366727
 -0.000000000000000 -0.000000000000000 0.000000000000000
 0.000000000000000 -0.000000000000000 -0.000000000000000
 -0.000000000000000 -0.000000000000000 -0.000000000000000
 155058.125007529 -784816.716303776 -4438.43207758296
 180259.270124389 -779417.088249869 -3949.44025394430
 190516.671829612 -776979.749544329 -2422.09681892920
 199936.452472569 -774612.391476672 -1028.56379227825
 208667.487930801 -772306.824976278 218.118566463238
 216847.726465905 -770048.791700752 1386.33573896027
 224926.578929680 -767720.577694755 3626.11017774480
 232156.660209145 -765517.928738853 9251.26477364250
 235415.948070870 -764299.394244704 20634.1307321616
 229421.065434583 -765428.948358167 38529.2064565493
 208358.357713175 -769978.757436120 60987.7681850771
 168014.026668023 -777695.663950902 83431.0560568538
 107676.240607444 -786441.905599716 99573.8737085948
 31761.3032651095 -792709.013992937 102973.971222087
 -49584.7903453607 -793399.315892897 89771.2320684562
 -123656.973061868 -788014.620616252 61171.1591209582
 -183457.210807642 -778382.056818566 21559.8104254033
 -227500.948544002 -766087.276985752 -36791.3366451188
 -0.000000000000000 0.000000000000000 0.000000000000000
 -0.000000000000000 0.000000000000000 0.000000000000000
 126932.267810754 -789857.913277077 -3560.36823946906
 135510.629974192 -788435.397165445 -2548.26618802359
 140927.960395934 -787488.640265638 -975.413358105395
 145155.112598184 -786720.970868806 327.539083529292
 149010.567496916 -785998.965878194 1215.07722213048
 152972.455726980 -785235.872104210 2013.19387958547
 157204.159425117 -784391.402874631 4120.60138938389
 160332.125629495 -783705.598994886 9957.08768637748
 158465.827737198 -783847.709841425 21710.5784335209
 145662.229557094 -785635.420369521 39490.5196377895
 116034.160136878 -789255.534213084 60098.0481825176
 66680.9482630252 -793454.426651600 77354.5342286079
 80.4982106249829 -795561.044063761 84158.2954212849
 -75475.3905519830 -792837.769906273 75576.0281509562
 -148342.794684164 -784438.649319019 51482.2369351279
 -208203.901723878 -772251.259004261 16707.1324077066
 -249418.681504541 -759810.764624144 -21861.4564430448
 -268032.200655472 -751630.499140374 -56659.7932733305
 -0.000000000000000 -0.000000000000000 -0.000000000000000
 49805.4857735515 -798393.757529886 -9317.80683267862
 79507.7649034976 -796021.050602937 -5385.37993532676
 85804.7362349159 -795382.471063823 -2066.87301580412
 87728.7722495374 -795175.239806152 22.7775562848593
 88079.5763825798 -795135.350495667 1327.63564195775
 87833.0615816594 -795161.152644084 2023.51647492525
 87654.3887004859 -795179.175976806 2605.04019034005
 87618.1378264223 -795174.447200472 4545.37602998896
 86094.0158865345 -795288.866403913 10170.5163344062
 78980.4833767336 -795804.355331719 21389.5133335164
 60364.7766840003 -796819.201484464 37884.7447074961
 24852.1175541901 -797656.862004946 55909.7732914022
 -29198.4178753202 -796503.629454798 68770.7834688048
 -97262.1910230204 -791025.087058088 69421.7389738026
 -169165.939008638 -780030.059564736 54184.7880383395
 -233194.089284170 -764846.917010413 25094.0284249657
 -281432.714091423 -748777.716973956 -11294.1578882549
 -312835.288822421 -734738.087659798 -47895.9769648381
 -333908.111545462 -722436.454770263 -81184.6159264057
 -355180.782681182 -707502.334025555 -115269.505778303
 20314.4259424588 -799728.926733153 -4579.06593819540
 30028.6914494162 -799431.596869415 -2720.22364043081
 33187.2733416936 -799311.155489575 -530.658142109278
 32344.8912959039 -799345.027351747 1155.53238401790
 29478.2711020718 -799453.580116067 2237.13487194629
 25621.2186487969 -799584.899671325 2746.15595821499
 21489.2623603559 -799705.155322541 3142.63484326720
 17115.2192100074 -799802.448071816 4807.63244466560
 10861.5572029487 -799865.870071144 9829.36775476136
 -1135.94574383859 -799754.469551285 19786.3099139442
 -24182.8330248269 -798906.175135940 34119.1136543096
 -62746.5729018947 -796022.560991315 49101.4254568452
 -117407.723173779 -789181.459535098 58378.5103030322
 -182769.219632144 -776858.805158649 55550.0603288024
 -248464.865781843 -759497.648686022 37795.9271934681
 -303586.879763500 -740116.979769580 7865.28398829927
 -341542.013722809 -722902.710239340 -27581.2325827773
 -361671.013707485 -710879.872252182 -61999.0731424350
 -366982.528808955 -704887.986388463 -91960.5904407083
 -360458.168992391 -704805.004108176 -115411.501119811
 -15504.4241570908 -799849.743602094 22.1635371932419
 -15959.5776736360 -799840.547616166 624.715576789284
 -18565.5716440732 -799783.010045762 1567.28799846814
 -23224.5422376260 -799658.943536720 2488.90730836502
 -29456.0132993695 -799451.292206568 3158.27005740593
 -36782.1659055769 -799146.599399106 3432.92006013583
 -44714.1819871378 -798741.206675204 3623.07718122682
 -53296.5452259080 -798207.640588068 4903.13917944577
 -64031.7305732242 -797381.996243195 9049.28433723546
 -80282.6273049859 -795773.369419459 17304.4582639624
 -106427.974970883 -792359.264845187 28980.7100946814
 -145796.292819358 -785549.689095404 40683.2516184145
 -198114.329440007 -773662.074553929 46879.7063498415
 -257936.189679172 -756103.445553661 42148.5667095916
 -315785.550434411 -734636.413669470 24265.7340234219
 -362084.771122485 -713356.341641933 -4165.13630211989
 -391110.382204002 -696883.557509916 -37228.7013547882
 -401943.697340395 -688235.066467707 -69092.3834624681
 -396626.905452476 -688068.512210349 -96170.7875387864
 -380175.761482097 -694318.273155996 -115708.798037068
 -53036.1697024617 -798228.966725740 4204.92369133492
 -61107.8184019280 -797653.500481401 3837.66855340266
 -69613.0887545071 -796957.028086230 3676.03835973268
 -78362.3699810177 -796143.763053653 3800.98957216998
 -87967.1535713983 -795138.717850039 4024.83146754803
 -98629.4984949074 -793886.432774590 4068.64634487981
 -110170.898258273 -792367.325469833 4049.03750890512
 -122685.219708900 -790521.675769974 4880.26667421626
 -137433.749334324 -788065.766389636 8019.50052220848
 -157166.676730760 -784277.112897925 14423.7966535753
 -185278.470453269 -777898.927119792 23348.3954988969
 -223991.511869133 -767343.293243579 31813.0936043495
 -272370.026449438 -751381.329446245 35223.0954279518
 -325320.274410808 -730282.736520466 29220.6056996985
 -374724.110150210 -706707.890394901 12074.7225940048
 -412587.602569469 -685254.251544878 -14074.1232638691
 -434086.514994407 -670522.139757168 -44372.9376476159
 -438372.469879381 -665113.647013444 -73847.2356173757
 -427591.710585026 -668844.188752603 -99059.4781474461
 -407816.436787023 -678179.109313074 -117298.122651904
 -91069.0669432358 -794754.989652721 8422.08217667552
 -107953.270156329 -792653.595737892 6809.45125147057
 -121184.495024330 -790749.282652444 5467.18852282508
 -133105.911041896 -788833.819023174 4901.26626711505
 -145609.874956973 -786622.406445005 4791.03263226209
 -159328.911384501 -783959.440672137 4679.03601822452
 -174212.496225188 -780788.024147583 4479.67707569163
 -190273.359161438 -777028.061880697 4841.47119684262
 -208429.328266674 -772340.010616662 6937.08288521384
 -230792.677363041 -765899.341894875 11529.8812048008
 -259886.812472680 -756398.266994802 17902.6922570610
 -297054.233543471 -742433.791413598 23470.1448894347
 -340922.328001831 -723307.955709865 24445.1933235905
 -386873.543369064 -700018.879700016 17390.5004125772
 -428151.216323023 -675785.133948043 994.331906995412
 -458293.165023217 -655312.867766705 -23074.2330832279
 -473404.247509697 -642872.628895935 -51021.5783390369
 -472997.011191216 -640363.130020648 -78796.5044550536
 -459950.526315599 -646352.149898308 -103317.044401393
 -441025.953260586 -656267.214900441 -121694.088588604
 -125242.363981515 -790034.750189693 12627.1040635118
 -158062.823150691 -784179.079276486 8905.92851513908
 -172876.926875564 -781069.820427935 6595.73883152705
 -186708.710457939 -777886.077833805 5753.89880625696
 -201704.410753834 -774134.735764239 5544.50770409792
 -218289.852956473 -769623.723176382 5372.59903250315
 -236256.859442061 -764301.958568853 5021.20447607666
 -255422.390304167 -758112.976824170 4910.89626264729
 -276319.994569917 -750740.728994050 5968.11782412555
 -300453.404589151 -741383.456753548 8849.95609868772
 -329638.500191974 -728814.205056897 12973.5769342787
 -364635.443754643 -711884.990057102 16147.8818813745
 -403905.620244522 -690383.305033501 15203.3570604981
 -443342.641574609 -665877.814809512 7351.04796324133
 -477319.482057248 -641946.216531463 -8436.06125749749
 -500601.471315456 -623253.883849433 -30866.8622214398
 -510027.396181963 -613694.290885343 -57020.8074178487
 -505308.820869850 -614539.397695523 -83691.8408875439
 -490287.178171954 -622802.954149377 -108328.035258620
 -476862.346399427 -629398.264781817 -128297.025982955
 0.000000000000000 0.000000000000000 -0.000000000000000
 -204236.588543805 -773460.934764613 6752.65081572587
 -220911.122002364 -768863.899882567 6824.92732766046
 -237474.974987246 -763912.538734435 6577.94946147012
 -255440.119935602 -758095.141116998 6488.61634586960
 -275045.695185385 -751206.074587030 6268.89651634579
 -295875.462232494 -743252.834168723 5738.93272908702
 -317627.316481106 -734224.937065987 5160.38908016724
 -340565.236009333 -723870.165666415 5225.25405936772
 -365679.820790153 -711502.592063620 6506.16274252896
 -394205.628588727 -696080.089930879 8627.32813716062
 -426545.142269549 -676729.211844734 9839.48384086599
 -461235.112932065 -653610.097434755 7484.05838266705
 -494721.214362955 -628689.310530506 -819.075039210305
 -522249.057308657 -605806.116977790 -15964.6726403293
 -539437.048006188 -589613.586746162 -36925.4595461677
 -543604.486420517 -583725.339768837 -61309.7875974334
 -534399.139319549 -589060.786737794 -86168.1462164348
 -513690.269095269 -603972.663787434 -106486.284724091
 0.000000000000000 -0.000000000000000 0.000000000000000
 -0.000000000000000 -0.000000000000000 -0.000000000000000
 -236010.123679595 -764357.876610667 7500.53224601191
 -264975.294263186 -754801.165675077 7955.73539546723
 -284881.416841114 -747516.416437707 7860.37497372948
 -306713.110867727 -738827.602631053 7800.07771058262
 -329599.307098694 -728909.974392559 7385.52578354873
 -352897.727802395 -717927.514571520 6578.56618635146
 -376500.599220256 -705844.493547617 5554.25200155511
 -400690.903880693 -692404.655422401 4753.17753288215
 -426101.178432734 -677064.735599626 4596.68855209853
 -453437.000353227 -659068.261581026 4890.12139239652
 -482820.104802870 -637860.285009185 4359.26669822748
 -512997.693515733 -613866.957522272 851.416400373861
 -541007.160785611 -589280.782437918 -7707.88090510001
 -562770.371623484 -568153.735010700 -22154.9591775160
 -574454.513037664 -555221.180942253 -41610.7279887021
 -573748.156933042 -553834.636333296 -63876.8190621851
 -562367.986541293 -562361.900476426 -86552.5309048469
 -547637.752421514 -573274.460864892 -107001.330098181
 -0.000000000000000 0.000000000000000 0.000000000000000
 0.000000000000000 -0.000000000000000 -0.000000000000000
 0.000000000000000 0.000000000000000 -0.000000000000000
 -302790.968371650 -740441.725708777 7979.99385756978
 -328839.775562783 -729229.911650100 9388.18207142242
 -356219.614244711 -716253.291083306 9423.87604343372
 -382324.278842992 -702676.664923222 8581.97993267361
 -407212.310393983 -688566.411422986 7377.75871570725
 -431605.002136119 -673558.811545159 5970.72197937216
 -456167.037096577 -657184.240948212 4528.54456221704
 -481299.097979717 -639015.619439097 3196.30986897772
 -507122.837057063 -618726.945407495 1842.59651194455
 -533447.764499629 -596182.314324444 -361.437542370374
 -559311.140488357 -571966.468385732 -5040.55234745206
 -582381.154097866 -548303.823872548 -13968.1093344480
 -599070.100493624 -529469.468300641 -27876.4565896918
 -605871.441064406 -520396.228475196 -45908.1941632633
 -599608.915715819 -525544.501859530 -65361.4929398007
 -581275.802773129 -543624.738913991 -81182.4140510135
 0.000000000000000 -0.000000000000000 0.000000000000000
 -0.000000000000000 0.000000000000000 0.000000000000000
 -0.000000000000000 0.000000000000000 -0.000000000000000
 -0.000000000000000 -0.000000000000000 0.000000000000000
 -335894.441333251 -726003.925472672 9655.28247614452
 -372491.131657991 -707898.768111960 11388.1930839965
 -405111.285944076 -689753.881692880 11154.7608823487
 -433039.206247572 -672595.884267190 9582.39632399023
 -458133.857370389 -655781.908118056 7966.03514739281
 -482125.409859887 -638369.382686938 6294.47498472063
 -506309.754405578 -619378.851190170 4502.36516831306
 -530808.226796760 -598529.295516861 2304.07746614195
 -554900.828780607 -576268.011554445 -499.076829202850
 -578055.785232626 -553021.488667268 -4329.22987738898
 -599838.616294800 -529233.474054367 -10274.4509286342
 -618694.316045252 -506777.202827677 -19854.7220442134
 -631135.366012483 -490451.816632439 -33543.4841694944
 -634900.453117098 -484094.007937187 -50541.1328624022
 -625157.327310712 -494571.578734375 -67655.5217104604
 -608283.501433476 -513358.616954638 -80337.4898926594
 -0.000000000000000 -0.000000000000000 -0.000000000000000
 0.000000000000000 0.000000000000000 0.000000000000000
 0.000000000000000 -0.000000000000000 -0.000000000000000
 -0.000000000000000 0.000000000000000 0.000000000000000
 0.000000000000000 0.000000000000000 -0.000000000000000
 -410036.316570708 -686825.788732131 11855.5904792640
 -449596.719073430 -661593.742830761 12510.3815126067
 -478257.600039518 -641225.616053019 9968.81747587171
 -503712.966946412 -621453.302764220 8308.99593723123
 -526563.086874511 -602236.884279717 6484.65529116436
 -550287.411288616 -580656.566830142 4660.08307933516
 -574275.077964384 -556960.334379266 1822.29447070247
 -596366.732298176 -533236.583331154 -2338.12003845689
 -615792.088933370 -510626.953278123 -7760.01243416797
 -633315.539655388 -488558.225821184 -14909.2995630935
 -648833.141334469 -467304.586713655 -25337.2836433659
 -656247.020084163 -455881.904217409 -38878.5035432829
 -659563.392345301 -449366.155672209 -55192.2966938164
 -642560.221917687 -471658.786295544 -68222.8005824047
 -0.000000000000000 0.000000000000000 0.000000000000000
 0.000000000000000 0.000000000000000 0.000000000000000
 0.000000000000000 -0.000000000000000 -0.000000000000000
 -0.000000000000000 0.000000000000000 0.000000000000000
 -0.000000000000000 0.000000000000000 0.000000000000000
 -0.000000000000000 0.000000000000000 -0.000000000000000
 -0.000000000000000 -0.000000000000000 0.000000000000000
 -0.000000000000000 0.000000000000000 0.000000000000000
 -510346.418054429 -616018.431932325 8235.59947137947
 -540907.965088821 -589362.221102649 8411.04276666072
 -562190.637950082 -569123.202688357 6361.34915153689
 -587235.698840637 -543258.068702372 4990.47061082460
 -611464.830147175 -515856.852222257 1571.46696796292
 -631064.939569361 -491671.108364452 -4069.79679968426
 -645244.981731743 -472794.037982980 -11167.4167895410
 -656481.183935792 -456803.715388752 -19047.8540863203
 -671045.222024256 -434519.927542232 -29845.3106385157
 -665438.357875502 -442184.799626599 -40796.9955650965
 0.000000000000000 0.000000000000000 -0.000000000000000
 -0.000000000000000 0.000000000000000 -0.000000000000000
 -0.000000000000000 0.000000000000000 0.000000000000000
 0.000000000000000 -0.000000000000000 0.000000000000000
 0.000000000000000 0.000000000000000 -0.000000000000000
 -0.000000000000000 -0.000000000000000 0.000000000000000
 -0.000000000000000 0.000000000000000 -0.000000000000000
 -0.000000000000000 -0.000000000000000 -0.000000000000000
 -0.000000000000000 0.000000000000000 -0.000000000000000
 0.000000000000000 -0.000000000000000 0.000000000000000
 0.000000000000000 -0.000000000000000 0.000000000000000
 0.000000000000000 -0.000000000000000 0.000000000000000
 -586546.469483489 -544004.870971832 4683.96150439837
 -615943.655492230 -510476.415928058 5219.39077999006
 -640412.800764441 -479447.187685685 1356.03736376583
 -657107.015042902 -456264.287173447 -5768.10467261404
 -664531.861813147 -445176.290406801 -14679.0699567015
 -659985.642824334 -451598.458424791 -21858.2619186043
 0.000000000000000 0.000000000000000 0.000000000000000
 -0.000000000000000 -0.000000000000000 -0.000000000000000
 0.000000000000000 0.000000000000000 -0.000000000000000
 -0.000000000000000 0.000000000000000 0.000000000000000
 0.000000000000000 0.000000000000000 -0.000000000000000
 -0.000000000000000 0.000000000000000 0.000000000000000
 -0.000000000000000 0.000000000000000 0.000000000000000
# End: Data Text
# End: Segment
