# OOMMF OVF 2.0
#
# Segment count: 1
#
# Begin: Segment
# Begin: Header
#
# Title: Oxs_TimeDriver::Magnetization
# Desc: Oxs vector field output
# Desc:  MIF source file: C:/Users/Victor H. González/Documents/GitHub/Intro-to-magnetism-in-python/domain_wall_conversion_thin_film/drive-3/domain_wall_conversion_thin_film.mif
# Desc:  Iteration: 34, State id: 182
# Desc:  Stage: 14, Stage iteration: 1
# Desc:  Stage simulation time: 2e-12 s
# Desc:  Total simulation time: 3e-11 s
# meshunit: m
# meshtype: rectangular
# xbase: -4.7499999999999995e-08
# ybase: -4.7499999999999995e-08
# zbase: 0
# xnodes: 20
# ynodes: 20
# znodes: 1
# xstepsize: 5.0000000000000001e-09
# ystepsize: 5.0000000000000001e-09
# zstepsize: 5.0000000000000001e-09
# xmin: -4.9999999999999998e-08
# ymin: -4.9999999999999998e-08
# zmin: -2.5000000000000001e-09
# xmax: 4.9999999999999998e-08
# ymax: 4.9999999999999998e-08
# zmax: 2.5000000000000001e-09
# valuedim: 3
# valuelabels: Magnetization_x Magnetization_y Magnetization_z
# valueunits: A/m A/m A/m
#
# End: Header
#
# Begin: Data Text
 0.000000000000000 -0.000000000000000 -0.000000000000000
 -0.000000000000000 0.000000000000000 0.000000000000000
 0.000000000000000 0.000000000000000 -0.000000000000000
 0.000000000000000 0.000000000000000 0.000000000000000
 0.000000000000000 0.000000000000000 0.000000000000000
 0.000000000000000 -0.000000000000000 0.000000000000000
 -0.000000000000000 -0.000000000000000 0.000000000000000
 701504.168345167 -383366.117498579 30369.7505491955
 728877.716394500 -328900.016364560 23707.6734187383
 754490.754203443 -265165.115505179 20764.4730403833
 774590.677604555 -198804.989429712 22042.1946722217
 788043.163724443 -135006.544909251 27589.9427117206
 794413.354907212 -86992.4896816480 36602.2988903218
 -0.000000000000000 -0.000000000000000 -0.000000000000000
 -0.000000000000000 0.000000000000000 -0.000000000000000
 -0.000000000000000 -0.000000000000000 -0.000000000000000
 0.000000000000000 -0.000000000000000 -0.000000000000000
 0.000000000000000 0.000000000000000 0.000000000000000
 0.000000000000000 0.000000000000000 -0.000000000000000
 0.000000000000000 0.000000000000000 0.000000000000000
 0.000000000000000 0.000000000000000 -0.000000000000000
 -0.000000000000000 0.000000000000000 -0.000000000000000
 0.000000000000000 -0.000000000000000 -0.000000000000000
 -0.000000000000000 -0.000000000000000 0.000000000000000
 0.000000000000000 -0.000000000000000 -0.000000000000000
 603048.209337539 -524929.296731507 27965.8836397543
 638735.885994912 -481146.958194304 22673.1683419605
 675034.889634831 -428767.649834485 22049.9485510805
 710466.073006669 -367220.064814990 19682.0502935489
 742404.684941814 -297500.074328654 18138.0691059129
 768515.450837106 -221478.807510492 18197.2428782648
 787454.825235045 -139664.596541278 20216.2975593291
 798105.770424158 -50385.7166820448 22101.1033683530
 798204.605802437 49487.5014379983 20503.5235313167
 791364.949470803 114061.693215341 27045.2748169011
 -0.000000000000000 -0.000000000000000 -0.000000000000000
 0.000000000000000 -0.000000000000000 0.000000000000000
 0.000000000000000 -0.000000000000000 0.000000000000000
 0.000000000000000 0.000000000000000 -0.000000000000000
 -0.000000000000000 -0.000000000000000 0.000000000000000
 0.000000000000000 -0.000000000000000 0.000000000000000
 -0.000000000000000 -0.000000000000000 -0.000000000000000
 -0.000000000000000 -0.000000000000000 -0.000000000000000
 475740.228614908 -642714.908958107 24264.8033251151
 522009.222258637 -605929.229178144 18871.7011557759
 565408.892100111 -565622.514416861 19594.7931572198
 605636.175419968 -522345.293611092 18979.3905333047
 645419.301717655 -472306.832035753 18978.4452114850
 685803.874482188 -411529.992970649 17779.5002966127
 724662.045388205 -338518.287368666 16440.4711237127
 758785.211853853 -252974.745610588 15772.7725895694
 784586.567431893 -155539.985498463 15206.2854299566
 798391.741591453 -48542.4342887616 14637.5896884457
 797472.921248689 62125.0586484831 13319.7959070016
 783055.717496373 163184.565028479 13947.7966972344
 756969.749724267 258484.961881491 13502.6843073339
 731014.378738436 324274.996689816 21533.8013243752
 0.000000000000000 0.000000000000000 -0.000000000000000
 0.000000000000000 -0.000000000000000 0.000000000000000
 -0.000000000000000 -0.000000000000000 -0.000000000000000
 -0.000000000000000 -0.000000000000000 -0.000000000000000
 0.000000000000000 0.000000000000000 0.000000000000000
 385258.884035124 -700893.773501038 17986.3987358869
 430633.430979395 -674024.183283105 15692.3061548914
 475628.080463152 -643100.411057224 14134.7222458663
 518917.517457426 -608680.612064609 15248.6908446231
 561636.870366729 -569447.915163145 17120.0981601746
 605643.413940268 -522389.579146229 17469.4805361064
 652355.150765187 -462759.540766922 16922.3136514252
 700201.001697705 -386610.174942025 15847.0771067599
 744639.781226131 -292038.898570577 14995.9306875215
 779577.155145377 -179075.637533105 13833.8431953458
 798238.007973593 -51828.0089910142 11399.1276147205
 796163.108343165 77830.8062248728 8165.20151228878
 775234.634512680 197412.604848828 6286.88307445366
 741008.403766032 301436.365366038 6531.70598156475
 700440.369783266 386336.023558872 11303.3304207646
 658313.471236576 454216.806158216 17620.0621985122
 0.000000000000000 0.000000000000000 -0.000000000000000
 0.000000000000000 0.000000000000000 -0.000000000000000
 0.000000000000000 0.000000000000000 -0.000000000000000
 -0.000000000000000 0.000000000000000 0.000000000000000
 343687.303001171 -722314.749707763 11850.7430312968
 379534.205798900 -704172.532439771 9738.13051663012
 420181.337780644 -680691.130299264 10355.1201238339
 462422.027504482 -652677.293487427 13349.8705825979
 505541.774431188 -619826.792086420 15564.7716599068
 553594.121639638 -577290.055906649 16423.7583194112
 607751.319552652 -519985.344090118 15924.0545556593
 666497.597179037 -442142.344832035 17061.6488358958
 724250.329621725 -339291.342552623 18516.0717124509
 772300.269228686 -207873.763854890 18460.5647286624
 798081.717491152 -53329.2998280268 14884.8240239963
 793178.653557681 103952.865867702 7837.42421429196
 761848.403225262 244099.951561567 1491.35869589105
 714743.886383560 359361.126752348 -870.319830539597
 661134.038341669 450443.068182014 1680.97376852524
 610270.567196437 517207.029708934 8168.42906567018
 -0.000000000000000 -0.000000000000000 0.000000000000000
 0.000000000000000 -0.000000000000000 -0.000000000000000
 -0.000000000000000 -0.000000000000000 -0.000000000000000
 256878.276211827 -757626.182534976 4014.81605038281
 294048.800884295 -743985.892350431 4504.96193562273
 324297.789060733 -731298.468801483 5787.36027288873
 358946.648511115 -714901.549130352 8548.60068430747
 395581.208435204 -695244.073422329 12295.7677299934
 437590.473212386 -669553.536735281 14582.1534430934
 487503.417046577 -634130.419295761 14799.6517422864
 548728.727470608 -581879.359271675 17697.3134139510
 618301.355084741 -507084.848307308 23840.9504325562
 692467.280358099 -399319.868572281 32135.7775209303
 760321.263838600 -246002.252597457 37342.5691651003
 797754.271079907 -48722.0258493425 34846.6235222422
 785675.469064321 149509.058430983 19002.5987075588
 736542.969935312 312244.205413159 2830.12804912411
 671688.856586562 434507.092940734 -6137.27314274945
 605143.244955120 523196.953769690 -8160.92220914404
 543308.490401653 587174.355281716 -6493.13152328892
 482132.736000286 638361.554295264 -6523.10314291536
 -0.000000000000000 0.000000000000000 0.000000000000000
 -0.000000000000000 0.000000000000000 0.000000000000000
 215720.574211839 -770363.440844223 2191.54565622463
 237844.407822058 -763822.305762455 2350.08244553953
 262444.517039520 -755715.459834530 4125.43851949493
 289115.273457373 -745884.085601191 8324.03150780603
 319590.248001420 -733295.488932227 11823.6751493450
 355924.374685758 -716336.539696684 13409.0044348354
 405333.242612428 -689524.999143619 16131.8935430973
 467284.143062759 -648882.241022478 24441.0909689029
 543480.217688839 -585593.554483727 41345.3979060130
 635204.362154946 -482277.246468223 62642.4443836430
 734977.174089465 -303871.682479118 86432.3675180431
 793667.658528788 -34065.5601156000 94504.9491796191
 764514.029364930 228516.669648580 57431.9649404517
 685107.844723722 412705.982935325 17349.7189430805
 599189.305975899 530035.434017451 -5883.39103341740
 522962.648096759 605238.821037882 -14001.3643728037
 459397.612468878 654782.577364187 -14615.4041410756
 408376.473479037 687808.751006459 -12156.3953440170
 -0.000000000000000 -0.000000000000000 -0.000000000000000
 117425.442626572 -791320.490413482 -4811.12000679149
 155582.381275326 -784723.867935371 -1604.28465409676
 174250.884680730 -780792.071893903 607.993099717847
 192494.955247767 -776484.058958761 4265.95676103987
 211484.952710211 -771498.108287374 8048.83135384285
 232092.398074699 -765502.987341692 11759.8948498999
 261061.742207552 -756079.332113168 13813.4103994711
 300097.638665994 -741310.993143420 19985.4625118278
 352805.241550005 -717034.831831907 37276.1515533873
 420983.185779969 -676941.582369882 67255.1213596982
 523086.607431621 -593870.677288578 117038.539731504
 665535.272290878 -398301.135605618 196007.670033552
 759531.822399707 564.664633879472 251219.210881714
 695046.626187875 365447.622489360 152833.970836746
 575151.701258335 553388.856105560 54417.7772223650
 474698.923429696 643934.575356903 3032.28537776536
 400479.677282118 692348.850882741 -16404.1691456436
 346032.844717705 720991.390855829 -20801.0742114388
 302107.592515018 740414.451648178 -22747.3588644505
 243820.154885453 761361.782322463 -29664.2628493692
 74764.2100668707 -796496.859326701 -1750.99279780087
 91283.0475899155 -794774.618548465 -843.168927506268
 104807.121372141 -793103.917638483 1281.84873366514
 115846.384522773 -791558.134276547 3916.02523396414
 125575.880239175 -790033.985590238 8774.95951900178
 136155.672947715 -788247.631151229 11282.9388294792
 149975.323254409 -785673.131276623 15004.4395004441
 171819.888743912 -780934.233469089 24892.7464952470
 196526.295637259 -773966.386577356 48512.3445267982
 232390.941079869 -759623.617146840 94691.1335699609
 302376.979026880 -715568.209691924 191129.013582114
 439040.599460105 -536862.583597120 398775.523771377
 539775.570367566 67256.3282871376 586616.501591714
 455451.918254318 569716.734394953 328612.831016704
 341436.731959161 714496.548819593 113646.996414069
 270330.062866687 752729.677025238 17879.8891488031
 227766.770783578 766739.570565114 -15255.4598896561
 198815.668504726 774542.438509699 -23586.8799222897
 176464.882437415 779899.668256652 -24832.4932198680
 151880.725560186 785006.958993458 -26387.8671960245
 23797.8782618687 -799645.702679080 641.230936856970
 28735.6497763332 -799483.283283113 861.500311007044
 32606.9023137464 -799333.840980417 1483.43688664937
 35632.6307243379 -799190.741440581 4947.16315865603
 35406.6554522892 -799178.556113242 7746.23769551624
 32519.5486551704 -799255.117783668 11564.4131662064
 30540.0639030100 -799277.344529187 14934.2230856289
 24984.9902599108 -799179.163882982 26237.6499902294
 12560.6622385600 -798223.024450379 51790.2790243315
 -15667.9354757571 -793087.001554811 103766.679443482
 -60695.4052204013 -764670.672596932 227144.954280931
 -145818.176881195 -599224.723608288 509575.107229166
 -252803.317171075 103157.676058593 751963.414467414
 -147363.999916698 668899.976900809 413348.124987461
 -58117.0763891768 785569.348506119 139653.872555136
 -11410.6295442576 799544.904723579 24448.7804187810
 13597.8884475610 799742.344403016 -15075.8083875132
 29358.7458481703 799087.952828719 -24423.5068372709
 37067.9426572221 798758.332706752 -24720.3066059322
 38815.1264285289 798684.850158348 -24410.9829354636
 -28340.2377190736 -799493.564986652 2621.15832435443
 -34125.0422789904 -799269.361818936 1992.17143037388
 -39033.8501964197 -799042.601352360 2698.10357432371
 -45821.8218171008 -798676.623236807 4001.51726396436
 -55974.2289730995 -797999.915676870 7938.53075674525
 -70611.2767786162 -796818.563835709 9706.90056053592
 -91392.1948422356 -794642.569726694 13807.7188585006
 -119416.289968241 -790712.184902314 22671.3549932502
 -168157.271102083 -780977.598444495 42392.4864023056
 -246333.716445640 -756876.205407984 80362.3657521976
 -372319.233273582 -690371.653493040 157370.164223899
 -559954.225587001 -487810.842503196 297475.792600986
 -703669.924971196 25614.2037203656 379726.940391124
 -583528.123415042 494618.847549918 234194.630237567
 -406723.780733456 683505.765924566 85997.8728443697
 -280389.188340293 749184.538187176 10219.1390605955
 -196962.924364380 775168.323999704 -17879.4824679643
 -141394.141708757 787024.729624535 -24490.2358067842
 -101486.679193997 793185.468842964 -23606.4813672502
 -76968.1038428438 795988.000780849 -21886.3794115296
 -79362.3940364644 -796036.919213483 5180.12180418029
 -96655.1852058686 -794130.897441826 3727.31821285026
 -111008.324277386 -792256.749118304 2528.91629429291
 -125044.603817058 -790155.630768899 4233.93675406013
 -143813.502442190 -786947.006357389 5664.42410613273
 -169830.015508532 -781719.503317892 8507.87663287524
 -202843.327082874 -773787.409049425 10374.5002061388
 -249631.492607023 -759880.369291315 16307.7363384512
 -315262.492596115 -734717.974578336 28267.6244773426
 -411671.457024472 -684265.067936739 48040.9020822691
 -541360.423229705 -583295.000774808 81828.0772820117
 -693026.980502152 -378796.004212833 127385.994082791
 -786782.418019898 -28988.9369758151 141891.043507947
 -729210.856903694 316331.480542645 90476.0774540932
 -597264.149012993 531395.048041737 29913.8633497107
 -469944.899142012 647388.454501630 -6323.03316412243
 -368503.704615597 709755.035050375 -21279.3304692940
 -289835.517097006 745276.778719288 -23619.8249551638
 -229917.050990736 765950.831302149 -21388.6346284813
 -183704.459566813 778392.842531676 -18901.1700887561
 -122175.723378023 -790568.870684921 8599.61167873861
 -160933.861192633 -783632.351085318 4542.09798760344
 -180025.943643336 -779476.392633179 2685.69225588053
 -200157.019927098 -774552.762847338 2277.04621372653
 -225785.850049384 -767464.626002744 4335.63743237531
 -258716.218265462 -756992.785275454 5276.49953351601
 -302100.350964521 -740734.299767112 6933.62067316596
 -356065.234404449 -716328.464245340 9543.59263688308
 -428169.605224503 -675610.326857620 14882.0497658604
 -519374.958201912 -608024.449317818 23577.9944975330
 -628253.504893666 -494075.486899649 34452.0947650391
 -735393.764263961 -311621.098452213 45697.9483250487
 -796758.456297749 -57355.5847341035 43431.5463440812
 -773419.787005134 203198.184526408 23072.2966803400
 -689676.047157798 405396.884013775 -562.502192253906
 -587895.977960681 542319.945612865 -16352.2380154564
 -491469.113624584 630837.838601689 -22399.3692191245
 -408931.014954897 687206.331617438 -22866.6305533139
 -340049.919390777 723840.525035715 -20516.9841435697
 -268157.429435787 753552.238688442 -15830.8750872539
 0.000000000000000 0.000000000000000 -0.000000000000000
 -221050.614192067 -768853.785588654 694.515158851325
 -243260.681300048 -762118.191702107 320.640215434794
 -268466.970090854 -753608.049651587 627.272323588786
 -299170.723288353 -741954.086081210 1006.21792815622
 -338284.251494772 -724954.187615408 2278.38747900743
 -385073.538115638 -701220.888979570 2763.16879784324
 -442887.457119066 -666211.995207976 3503.96455679414
 -511250.770988446 -615299.362443950 5416.98622749891
 -591805.104869778 -538247.573629492 7501.15538013585
 -677464.850951433 -425370.519198422 10064.6471482382
 -754034.072500652 -267068.539167979 10344.7037059219
 -796982.512664420 -69149.9334794731 6095.99925289855
 -788273.736605166 136430.607097364 -3347.48048144179
 -735068.335660353 315429.855595323 -13362.1895149228
 -658419.783838388 453969.600077472 -19874.3668002248
 -575891.433771505 554815.401521274 -22998.4074098450
 -497967.026871555 625647.986989664 -24360.5526309747
 -433714.170067085 671643.753321178 -28047.9465854265
 0.000000000000000 -0.000000000000000 0.000000000000000
 -0.000000000000000 -0.000000000000000 -0.000000000000000
 -262287.565500813 -755780.997013738 -563.503838920647
 -299100.528647197 -741980.360539988 -2004.57873827306
 -329170.286320047 -729135.831630958 -2803.86087564496
 -365381.829448292 -711681.658990894 -2309.75431334105
 -407085.007130822 -688678.365754096 -1976.23671817172
 -456130.033808980 -657223.219306294 -1741.33916593112
 -511322.443976996 -615261.791296997 -1512.10297375672
 -574220.774090277 -557016.899880601 -1635.80272860990
 -641866.859237805 -477498.654773157 -1403.46073023514
 -709257.524156933 -370065.832137847 -2245.95434082152
 -765416.518805559 -232641.553898055 -3931.93838686400
 -796820.503360559 -70834.8679455401 -7714.07203510141
 -793891.603942799 97859.1828488029 -12637.3067263324
 -758653.933484036 253252.778277138 -17528.2487462573
 -701366.391245809 384231.696585313 -21241.1998249336
 -633459.562694575 488017.120635561 -23838.4646606050
 -564451.398350164 566260.568190484 -27268.8065953597
 -497494.656047061 625659.669178264 -32388.9729439075
 -0.000000000000000 0.000000000000000 0.000000000000000
 0.000000000000000 -0.000000000000000 -0.000000000000000
 0.000000000000000 0.000000000000000 -0.000000000000000
 -348288.890177855 -720143.518998713 -9389.41014273347
 -383761.603554775 -701905.015358709 -7508.73167441282
 -424457.096190727 -678077.364694003 -6874.66238969484
 -468719.385038565 -648272.412877125 -6709.45538333433
 -515710.598804743 -611556.023313212 -6465.95930888596
 -567178.981830926 -564148.842483078 -6639.73600661181
 -622017.580413092 -503042.072928592 -6542.36354445614
 -678469.390882498 -423826.230636716 -7114.20127671305
 -731396.380704537 -324026.390919544 -8138.32169176592
 -773688.292697009 -203234.361768836 -10110.3877275500
 -797116.828913825 -66639.1121551112 -12805.8499736626
 -796279.674915539 75364.1900422770 -16090.9345805162
 -771679.586896302 210084.068354215 -19372.6454387423
 -728923.194283495 328870.781931310 -22693.2947681637
 -675168.873844721 428234.199641826 -27612.7153387083
 -621443.598349599 502503.513567987 -36028.7790818688
 0.000000000000000 -0.000000000000000 0.000000000000000
 -0.000000000000000 0.000000000000000 0.000000000000000
 -0.000000000000000 0.000000000000000 -0.000000000000000
 -0.000000000000000 -0.000000000000000 0.000000000000000
 -389777.903872896 -698478.685157391 -14167.2874345515
 -434761.104435491 -671430.305736721 -12811.1907458261
 -479199.705611607 -640493.214048250 -11665.5432746269
 -522727.989031589 -605491.188224344 -11656.3487277764
 -566783.830765428 -564466.478595806 -11562.1678122018
 -612363.562909954 -514673.213030436 -11061.2209612405
 -659532.208432318 -452657.309496701 -10891.5655255663
 -706009.002594197 -376072.317429899 -10995.4681052415
 -747775.289241562 -284063.124846033 -11843.0529174713
 -779935.919282503 -177517.409984888 -13694.1945806968
 -797622.167084055 -59530.0997179801 -15970.1535278350
 -797354.058932116 62303.5617439727 -18568.0073915884
 -779482.104944644 178694.291107137 -21817.3874876170
 -747375.725001453 284224.489817360 -25415.8428271547
 -706579.639116409 373761.210672004 -32369.2907417404
 -663444.678777453 445046.135666026 -42131.8802170122
 -0.000000000000000 -0.000000000000000 -0.000000000000000
 0.000000000000000 0.000000000000000 0.000000000000000
 0.000000000000000 -0.000000000000000 -0.000000000000000
 -0.000000000000000 0.000000000000000 0.000000000000000
 0.000000000000000 0.000000000000000 -0.000000000000000
 -480008.191967435 -639660.849879367 -20642.9836932282
 -525672.165846527 -602825.820104167 -16425.7319459086
 -568834.072833139 -562250.316334866 -17389.0587843998
 -608898.914022536 -518633.984685966 -16152.4744523293
 -648827.188081788 -467743.102017061 -15481.2958545811
 -689140.673288686 -406047.939160675 -14498.3972419384
 -727257.424350336 -333008.434153481 -14213.4271012350
 -760062.767229728 -249137.177584800 -15338.0773296277
 -784594.958510613 -155274.287400953 -17339.1681419721
 -797994.291955733 -52918.6695549611 -20117.7637574598
 -797868.221571247 53791.3966615577 -22644.7930424125
 -784740.714252537 153167.272803682 -26866.2974058721
 -759834.913779785 248549.091681096 -29567.7666685803
 -733727.608732647 316295.228069164 -40014.0585813011
 -0.000000000000000 0.000000000000000 0.000000000000000
 0.000000000000000 0.000000000000000 0.000000000000000
 0.000000000000000 -0.000000000000000 -0.000000000000000
 -0.000000000000000 0.000000000000000 0.000000000000000
 -0.000000000000000 0.000000000000000 0.000000000000000
 -0.000000000000000 0.000000000000000 -0.000000000000000
 -0.000000000000000 -0.000000000000000 0.000000000000000
 -0.000000000000000 0.000000000000000 0.000000000000000
 -606829.333614472 -520642.276352213 -26263.6619647851
 -641664.303498757 -477311.878474554 -20983.1428186378
 -677393.918674088 -425116.016414248 -20343.3412065205
 -712381.473890628 -363564.298909047 -18265.7114887555
 -743719.608127234 -294227.791684718 -17639.4752588813
 -769099.869875393 -219362.053857443 -19122.7478437988
 -787406.750083569 -139500.545687959 -23026.2388503549
 -797801.477311516 -52603.1860243437 -27307.6476403852
 -798221.333900335 44785.6579709949 -28930.0353693809
 -791740.243569693 108071.150913782 -38314.6584530479
 0.000000000000000 0.000000000000000 -0.000000000000000
 -0.000000000000000 0.000000000000000 -0.000000000000000
 -0.000000000000000 0.000000000000000 0.000000000000000
 0.000000000000000 -0.000000000000000 0.000000000000000
 0.000000000000000 0.000000000000000 -0.000000000000000
 -0.000000000000000 -0.000000000000000 0.000000000000000
 -0.000000000000000 0.000000000000000 -0.000000000000000
 -0.000000000000000 -0.000000000000000 -0.000000000000000
 -0.000000000000000 0.000000000000000 -0.000000000000000
 0.000000000000000 -0.000000000000000 0.000000000000000
 0.000000000000000 -0.000000000000000 0.000000000000000
 0.000000000000000 -0.000000000000000 0.000000000000000
 -703521.899606565 -379745.511108300 -29159.6222037646
 -730388.082309025 -325580.215420301 -23038.5014229904
 -755444.067376741 -262415.177962957 -21036.5263281736
 -775006.861956850 -197002.040563330 -23549.0962391492
 -788029.700996382 -134457.903943234 -30500.2035197345
 -794129.023167914 -87688.5839797406 -40863.2695950993
 0.000000000000000 0.000000000000000 0.000000000000000
 -0.000000000000000 -0.000000000000000 -0.000000000000000
 0.000000000000000 0.000000000000000 -0.000000000000000
 -0.000000000000000 0.000000000000000 0.000000000000000
 0.000000000000000 0.000000000000000 -0.000000000000000
 -0.000000000000000 0.000000000000000 0.000000000000000
 -0.000000000000000 0.000000000000000 0.000000000000000
# End: Data Text
# End: Segment
