# OOMMF OVF 2.0
#
# Segment count: 1
#
# Begin: Segment
# Begin: Header
#
# Title: Oxs_TimeDriver::Magnetization
# Desc: Oxs vector field output
# Desc:  MIF source file: C:/Users/Victor H. González/Documents/GitHub/Intro-to-magnetism-in-python/domain_wall_conversion_thin_film/drive-3/domain_wall_conversion_thin_film.mif
# Desc:  Iteration: 52, State id: 268
# Desc:  Stage: 22, Stage iteration: 2
# Desc:  Stage simulation time: 2e-12 s
# Desc:  Total simulation time: 4.6e-11 s
# meshunit: m
# meshtype: rectangular
# xbase: -4.7499999999999995e-08
# ybase: -4.7499999999999995e-08
# zbase: 0
# xnodes: 20
# ynodes: 20
# znodes: 1
# xstepsize: 5.0000000000000001e-09
# ystepsize: 5.0000000000000001e-09
# zstepsize: 5.0000000000000001e-09
# xmin: -4.9999999999999998e-08
# ymin: -4.9999999999999998e-08
# zmin: -2.5000000000000001e-09
# xmax: 4.9999999999999998e-08
# ymax: 4.9999999999999998e-08
# zmax: 2.5000000000000001e-09
# valuedim: 3
# valuelabels: Magnetization_x Magnetization_y Magnetization_z
# valueunits: A/m A/m A/m
#
# End: Header
#
# Begin: Data Text
 0.000000000000000 -0.000000000000000 -0.000000000000000
 -0.000000000000000 0.000000000000000 0.000000000000000
 0.000000000000000 0.000000000000000 -0.000000000000000
 0.000000000000000 0.000000000000000 0.000000000000000
 0.000000000000000 0.000000000000000 0.000000000000000
 0.000000000000000 -0.000000000000000 0.000000000000000
 -0.000000000000000 -0.000000000000000 0.000000000000000
 645887.161945247 -471922.149239558 10920.5810939863
 679709.771767618 -421839.342071783 6796.73775108686
 712528.380824894 -363691.801400691 5619.61857914583
 740046.320168390 -303784.600968152 6808.83395645442
 760777.234128494 -247189.132836028 10748.6110530666
 772377.768080260 -207740.558810200 16626.5931742606
 -0.000000000000000 -0.000000000000000 -0.000000000000000
 -0.000000000000000 0.000000000000000 -0.000000000000000
 -0.000000000000000 -0.000000000000000 -0.000000000000000
 0.000000000000000 -0.000000000000000 -0.000000000000000
 0.000000000000000 0.000000000000000 0.000000000000000
 0.000000000000000 0.000000000000000 -0.000000000000000
 0.000000000000000 0.000000000000000 0.000000000000000
 0.000000000000000 0.000000000000000 -0.000000000000000
 -0.000000000000000 0.000000000000000 -0.000000000000000
 0.000000000000000 -0.000000000000000 -0.000000000000000
 -0.000000000000000 -0.000000000000000 0.000000000000000
 0.000000000000000 -0.000000000000000 -0.000000000000000
 541347.417578303 -589007.873304259 3563.51889230734
 578929.815796673 -552116.081813392 2846.15260624378
 614694.944560467 -511976.436473858 5500.32974782152
 653145.827512354 -461925.276965538 5056.33301062787
 690910.079377921 -403268.768038180 4190.81602604769
 725603.617494867 -336869.841493793 4254.42949281564
 755252.848765263 -263764.294006432 4640.21974093714
 779496.496687806 -179899.240778838 4634.09307585511
 796403.716539811 -75724.2301703331 2638.41745877789
 799908.349492465 -9537.77373703709 7460.78309439592
 -0.000000000000000 -0.000000000000000 -0.000000000000000
 0.000000000000000 -0.000000000000000 0.000000000000000
 0.000000000000000 -0.000000000000000 0.000000000000000
 0.000000000000000 0.000000000000000 -0.000000000000000
 -0.000000000000000 -0.000000000000000 0.000000000000000
 0.000000000000000 -0.000000000000000 0.000000000000000
 -0.000000000000000 -0.000000000000000 -0.000000000000000
 -0.000000000000000 -0.000000000000000 -0.000000000000000
 422985.230695347 -679031.252751224 228.912008753290
 467150.730596128 -649436.907271099 -1377.81626245181
 504606.779368343 -620782.941400800 733.403899004965
 539671.906672510 -590544.979818626 3295.44526227268
 577102.458618826 -554015.139006533 4469.67646242373
 617206.554852098 -508958.242309907 4192.40174766685
 661126.849521258 -450444.466154288 3327.42439070398
 703876.554990778 -380199.475391217 2480.77539472223
 743547.870300386 -295183.402292089 1823.06967140294
 776076.970573318 -194176.532368278 100.115791210918
 796141.633584551 -78438.4650527482 -2430.32374199296
 799176.092666317 35959.8770078970 -4945.72099651126
 785206.921750777 152788.907427728 -10278.1224798067
 766118.364582700 230230.418207671 -7523.69464093533
 0.000000000000000 0.000000000000000 -0.000000000000000
 0.000000000000000 -0.000000000000000 0.000000000000000
 -0.000000000000000 -0.000000000000000 -0.000000000000000
 -0.000000000000000 -0.000000000000000 -0.000000000000000
 0.000000000000000 0.000000000000000 0.000000000000000
 339851.428125100 -724211.100252576 4391.93263644080
 380899.004623337 -703502.131425501 836.275509556207
 419426.914868083 -681234.882468694 -313.036911415320
 454304.002292136 -658483.760112395 2647.86132352315
 489910.403296153 -632436.110147702 3516.15179485114
 527486.735957962 -601445.440561420 4596.23936424692
 572973.570112437 -558290.722104340 3571.77334441247
 621870.018150488 -503254.537270240 3542.77326816307
 674421.637954279 -430277.398549931 4100.55559300353
 724884.068241881 -338421.376283557 3749.62444027034
 768560.476497978 -222057.406513638 2302.64579058954
 795360.506468961 -86025.8444004644 -1104.01296400036
 798018.625081922 55853.6973481627 -6829.23970136513
 777347.820628555 188535.296991869 -13594.3941469819
 741940.425286524 298756.479533282 -16400.3433662812
 700669.673784458 385734.893220489 -16449.9358953081
 0.000000000000000 0.000000000000000 -0.000000000000000
 0.000000000000000 0.000000000000000 -0.000000000000000
 0.000000000000000 0.000000000000000 -0.000000000000000
 -0.000000000000000 0.000000000000000 0.000000000000000
 302100.224580489 -740748.576810244 5196.17763525248
 331220.832051804 -728208.817823626 2162.88206517912
 363127.124764277 -712830.335435105 3406.48556496831
 395316.924768976 -695494.513585572 3451.16843532428
 428035.444440988 -675834.969412997 5722.97306819996
 469027.770824266 -648071.579905664 4022.12806810441
 515325.106228063 -611891.333834720 5387.99304034884
 571464.416031315 -559797.454666368 7431.75342991674
 631177.642569774 -491433.761135802 10375.0631796367
 696083.897854417 -394104.175622372 12210.8928752913
 755750.578051271 -262058.176762307 12906.4234853704
 794230.874196104 -95235.3880553401 11293.3314678039
 795744.580036607 82391.3365004783 1493.65726639722
 762450.418881563 241959.786839302 -11172.3005692174
 709274.072492741 369503.937467171 -19928.1280058961
 653794.201805677 460556.568833773 -20994.9658094408
 -0.000000000000000 -0.000000000000000 0.000000000000000
 0.000000000000000 -0.000000000000000 -0.000000000000000
 -0.000000000000000 -0.000000000000000 -0.000000000000000
 221467.326169945 -768694.623985175 7797.33899643930
 254543.596938808 -758409.075647405 4819.87895105190
 277777.994753547 -750207.839323310 5251.99472109833
 301956.474685720 -740811.147087932 4596.92784733131
 327670.640368728 -729774.776309552 7792.77246495272
 359081.673455916 -714863.785821851 5488.12431983091
 395936.082872712 -695108.089696433 7704.66858394194
 445122.556872591 -664665.539064263 9253.67730252644
 499374.467439197 -624801.126437770 15770.0244740366
 567843.447179019 -563125.607215970 21056.3528060799
 647963.180805648 -468399.405283178 27307.7544040556
 733575.186906823 -316874.217087958 38186.0668243382
 791632.049689802 -105821.927647724 46047.9916266095
 789156.499428169 127928.709473114 29432.3750795295
 733233.200550798 319943.991773051 2217.14644512744
 655953.798974039 457560.261130094 -19058.3589557469
 577456.782949230 552789.361546490 -31106.0377893098
 498157.275908307 624801.704934003 -38238.1742657517
 -0.000000000000000 0.000000000000000 0.000000000000000
 -0.000000000000000 0.000000000000000 0.000000000000000
 184721.624209944 -778361.236397211 5630.91674995674
 202075.556108074 -774038.493772780 5466.24016847735
 217763.843721192 -769773.196776161 5304.13921222082
 235458.954407164 -764511.600112453 9005.22531546696
 254655.120328549 -758350.199336492 7466.24783638321
 278528.157570047 -749874.308865937 10516.0041588308
 312869.042677625 -736222.203452632 9477.83083497858
 351363.854585871 -718499.394397708 17379.9292485580
 403420.568974723 -690409.975573136 24205.5811170182
 469752.305292593 -646639.991011821 34489.0373383563
 568343.671783538 -560412.170718417 54070.9686826305
 687644.374171960 -397372.935031016 96124.7375782668
 778828.008966577 -118365.932510827 139342.880944808
 765113.473702598 209873.147935925 102735.749056548
 670408.755783277 434823.877358670 38474.6130310788
 566197.202568967 565137.175782154 -6379.68275444508
 477699.799007049 641008.450159486 -30183.9171208577
 409285.027864691 686300.319777252 -38440.0447377454
 -0.000000000000000 -0.000000000000000 -0.000000000000000
 95806.6624541847 -794232.550742407 -3967.21194285156
 130303.248036793 -789316.544026013 675.927432525805
 142373.859251205 -787221.736428522 3409.09025704672
 154073.559992544 -784988.499142738 7375.25083338376
 162871.235929700 -783205.683408257 7862.44133441404
 174907.568541471 -780547.815114980 12347.0962635773
 191434.912490640 -776698.719399293 9579.85194042316
 211721.684219486 -771303.787116353 16260.2709459813
 240238.383863244 -762788.053960021 20973.8802957527
 271707.607638748 -751708.776682894 33300.0151521768
 329192.390474450 -727361.296668062 50773.1638079961
 424263.888677300 -670576.929681603 101620.539967123
 568037.422108844 -518328.381244593 220610.916049725
 695967.530655472 -145655.992503693 366624.505619973
 663496.405427183 355193.107409551 271312.322672512
 523658.584112693 594432.590560685 111497.006975086
 409284.862238409 687138.903005127 18056.2875308616
 329768.512280404 728457.148535577 -24554.2472046180
 270008.291843212 751598.024491147 -46860.7716210128
 194050.985951507 773447.593441764 -64210.8639592429
 58282.1952771771 -797874.113701495 -290.514589884686
 71215.9894959561 -796822.369004430 1547.60921443896
 80599.0778275526 -795917.577005186 4358.81492397744
 83610.5876101064 -795594.840704778 6174.06538925465
 88163.8114073476 -795045.578669972 11387.2821804703
 89976.6538623163 -794864.455631429 9731.33770317004
 94867.6222269909 -794212.855095829 15035.7924144170
 102689.431399771 -793237.073128059 15160.0294862086
 106031.008387150 -792491.359510261 26737.0597108589
 114682.634426685 -790849.692690624 37478.7530755980
 129129.226462916 -786548.473134907 68316.4861672122
 169830.833181508 -765705.267333703 157648.126149019
 231089.010320445 -660550.660033506 387647.642632348
 275631.325374944 -194414.291266405 725417.435566194
 267562.511915835 542341.243755177 523713.927196305
 198059.782381336 748815.236667281 200120.123770652
 153544.047370949 783736.869879733 46698.4401031347
 127502.158668559 789610.725187848 -16065.5595351707
 106929.461293426 791775.765634313 -40709.0562614310
 83268.5549757720 793858.966760147 -53425.5430179237
 13992.5061316604 -799867.212766955 4080.65099935834
 16873.7071937049 -799810.569307505 4281.49851642976
 15667.6801876297 -799829.860301721 5168.98126024531
 15490.8312397073 -799803.080945744 8664.05547071876
 8736.79639401301 -799902.549122725 8920.77887491249
 3704.66767833959 -799867.739654793 14066.7870150022
 -3979.35082581800 -799909.221576777 11375.5001402365
 -15308.5058460016 -799611.742552916 19664.9642830107
 -30904.4285280274 -799044.091576971 23946.9416270584
 -61472.7377818846 -796664.065345670 39337.8888161289
 -99813.3987654518 -790836.857333908 67929.0108062544
 -170025.659315803 -766984.068346076 151085.121959536
 -307363.282730361 -654312.814935609 342640.558953921
 -507550.991369187 -201838.485519431 584511.092215861
 -444037.643699721 493723.577869051 446169.922376871
 -270312.805974252 730353.659527092 183069.710606944
 -162029.004188044 782116.939903125 45162.9728694041
 -102350.783121789 793345.995537169 -11244.9348373164
 -69706.9573893700 796156.316342368 -35721.9825831132
 -54121.8860518683 796933.856195212 -44353.6954493965
 -30145.5575283066 -799389.790259318 8198.08456110495
 -37954.7550933277 -799064.972546792 7389.60178906934
 -44572.1165600900 -798721.495002069 7569.66624190678
 -56174.0864977824 -797988.033441910 7718.19212335738
 -66305.2289215891 -797156.231871263 12064.7671533821
 -83319.2951326896 -795585.891797300 10049.0711852759
 -102029.368610718 -793311.316768252 15721.4066902652
 -126523.482807036 -789794.576074764 14708.3616103527
 -165442.164292614 -782317.844639831 24651.1710120363
 -216888.137576979 -769381.887546587 31796.9635915151
 -296736.652982776 -741065.541553411 52623.3968756203
 -410883.363819412 -679495.122900808 97268.9019700585
 -579923.020911888 -521057.365901305 179411.569460902
 -741551.108253081 -161953.344777102 252731.216837448
 -711351.041734353 305304.248166969 201913.376165754
 -550943.260661505 572520.950728451 93173.4109532240
 -406235.192967733 688840.219483094 21728.3229208531
 -302890.401284584 740280.658624099 -15554.7830822251
 -232758.500417616 764754.501556831 -31209.4990652752
 -189906.421045798 776161.363797483 -38846.9895050846
 -73616.9889945597 -796502.173951723 12838.4509015907
 -91151.5177076866 -794724.641660766 10205.1338429571
 -107984.123254712 -792636.045538580 8217.56885416108
 -121729.030823206 -790625.306931732 9678.17616845522
 -142359.626048311 -787181.997550700 8845.31534059063
 -164158.200706853 -782857.488747936 13646.8843316913
 -193059.400845008 -776280.541194545 10797.6436351071
 -230602.204441408 -765846.929725164 17352.3352117754
 -277875.831970078 -749974.133506609 17995.0292566261
 -346584.423972150 -720545.716029940 26326.9476163408
 -432518.829618356 -672112.642198486 34526.1961782372
 -547877.887341867 -580533.832538102 53012.1669094485
 -679493.140655877 -414733.699138567 79278.1848963080
 -781952.623396861 -140392.652916096 94021.2623290482
 -775534.770842513 182006.375491090 73617.2431896669
 -676705.204400826 425351.117122203 33859.9099190958
 -556605.991817946 574620.797229646 842.177847158036
 -451095.774002644 660452.980046607 -17733.1278829102
 -368186.416427009 709608.817110026 -29901.3283709576
 -307950.292440045 737537.492055958 -34714.0489989316
 -110683.508128641 -792115.455617138 17385.7988252021
 -149078.887812191 -785901.519832892 11588.1980062478
 -167175.268814374 -782285.513814553 9044.57697977968
 -188361.300639494 -777471.145939276 7657.52265861607
 -210431.886068095 -771748.431128479 11080.6306930387
 -240384.456590638 -762973.465454131 9316.86870877618
 -275650.218757066 -750874.983022173 14272.9384022140
 -318154.427237538 -733913.805008115 12177.3251441382
 -374743.557660117 -706576.133865371 17816.6507544187
 -441518.726701303 -666873.184047348 18476.2109376376
 -527402.496818062 -601088.919435197 23210.2839771880
 -622925.829383389 -501169.938733053 28144.3350840905
 -721119.769452592 -344741.466252988 33757.9553643542
 -788624.980924330 -130081.267850522 33904.3244513398
 -791891.721116928 111162.191436940 23462.0805003865
 -732988.161818367 320441.153900089 6769.15957198015
 -644444.547184109 473950.757871281 -7867.95512864119
 -552972.336570551 577756.971632513 -20456.7034913487
 -472662.196171638 644816.493303493 -28322.0457239813
 -397223.646976720 693637.963741462 -32859.5425883086
 0.000000000000000 0.000000000000000 -0.000000000000000
 -203326.894746231 -773697.242766034 7123.93213695629
 -224688.110573358 -767766.076588693 7106.65931217531
 -246838.090971243 -760916.458838737 8780.63289233003
 -275556.383412512 -751001.372339522 8100.51262396839
 -308285.291930696 -738112.674423500 12241.6761349792
 -347421.023058180 -720552.622038680 10126.7769003674
 -395146.440661645 -695451.340473036 14377.8811613540
 -449177.993460045 -661866.842674186 13092.4695803563
 -516699.211810826 -610544.966716700 16023.9861138005
 -589846.569979616 -540214.414117992 15792.7408145845
 -670006.849421181 -436827.607274216 16506.4609103752
 -742177.491775128 -298177.942237779 16201.4031868422
 -790543.359427324 -121969.676260841 12829.4558803460
 -796920.068453940 69828.7024565009 6508.21086089882
 -760584.481489014 248004.710770526 -2215.84153642349
 -696200.504956808 393897.533360861 -12230.7035822029
 -622275.825869667 502278.285230887 -22120.5950133349
 -556349.177970638 573844.009123859 -34331.4049239353
 0.000000000000000 -0.000000000000000 0.000000000000000
 -0.000000000000000 -0.000000000000000 -0.000000000000000
 -240344.086435734 -763013.219470354 6748.85389208204
 -274424.242044574 -751416.110678487 8072.42163652245
 -302008.682369268 -740761.447460295 7951.96391509578
 -333190.149183482 -727233.555204652 10755.4949440090
 -369803.756748930 -709333.678916842 9534.85441300419
 -411578.612294774 -685885.996034585 12784.6136098961
 -457472.285803480 -656200.915127158 10930.0827087563
 -512353.371648043 -614259.414475110 13393.8153480003
 -570926.250411089 -560259.659679645 12342.2172717468
 -636546.743824281 -484405.303686782 12639.0144719458
 -699878.525041347 -387347.147365091 11499.4614689256
 -755902.699247124 -261763.696250760 9532.92169541841
 -791761.517026406 -114330.945020315 6491.16066720213
 -798747.491905901 44728.6156235165 1339.82029999664
 -775246.121692703 197392.993864172 -5427.40948901440
 -728615.133588357 330032.042618046 -14100.9911489030
 -670429.899110627 435751.745254295 -25380.4429896344
 -612256.741844440 513528.180418233 -37821.8188664824
 -0.000000000000000 0.000000000000000 0.000000000000000
 0.000000000000000 -0.000000000000000 -0.000000000000000
 0.000000000000000 0.000000000000000 -0.000000000000000
 -319228.544507405 -733510.851382224 7413.99192133338
 -350629.792501193 -718992.582480781 10412.2499100239
 -387216.187452208 -699968.238935116 10396.5694846233
 -425885.144477142 -677103.946116702 12332.4720504354
 -466627.681919500 -649729.099806147 10521.5650702986
 -512631.380418189 -614054.638701454 12081.7424144749
 -561106.700582947 -570127.462365764 10674.6061891452
 -615536.732176078 -510871.884658541 11155.6625722339
 -669548.414026888 -437725.337826532 10072.2340484481
 -722109.098265137 -344207.876382830 8909.99656190655
 -765238.925461075 -233150.497668312 7087.48165418782
 -793026.797404622 -105324.748531751 3898.19764647833
 -799473.583793416 29009.8839810898 -644.552492826889
 -783898.313092240 159511.726761112 -7709.97774495225
 -751076.954906560 274864.554549169 -18245.1215610028
 -712087.369661319 363178.657405559 -32137.8402186559
 0.000000000000000 -0.000000000000000 0.000000000000000
 -0.000000000000000 0.000000000000000 0.000000000000000
 -0.000000000000000 0.000000000000000 -0.000000000000000
 -0.000000000000000 -0.000000000000000 0.000000000000000
 -356120.002518474 -716301.711887321 9507.96263849956
 -397818.141544949 -693969.626253823 12119.5748626635
 -438025.134851619 -669291.740907640 13510.9877892818
 -476689.532027658 -642364.135876448 11636.4511323869
 -516488.267455500 -610817.547398695 11907.7021569634
 -557604.627622802 -573564.769165739 10026.7056149131
 -603254.767212260 -525340.136868780 10071.0689786963
 -649480.586049220 -467006.214085486 8953.45467983105
 -696177.226408388 -394045.100689706 8107.28393260591
 -738127.821383522 -308417.685284562 6771.31474149868
 -772537.600110082 -207754.879492735 4854.53016409900
 -794167.402909250 -96408.6350908272 1873.82931447353
 -799773.134496202 18786.1676992963 -3164.37060006559
 -789246.532123198 130286.509549444 -10739.5046873107
 -767008.215691852 226230.166773599 -22766.3941543461
 -740256.070199482 301082.964231862 -37013.4999989918
 -0.000000000000000 -0.000000000000000 -0.000000000000000
 0.000000000000000 0.000000000000000 0.000000000000000
 0.000000000000000 -0.000000000000000 -0.000000000000000
 -0.000000000000000 0.000000000000000 0.000000000000000
 0.000000000000000 0.000000000000000 -0.000000000000000
 -438882.715560612 -668731.098105740 13441.7412723980
 -483137.062850880 -637470.757412567 14477.9813397217
 -521559.294487802 -606482.327229889 12453.4770728738
 -558490.215407980 -572692.810173873 10565.2481608440
 -596918.601699310 -532541.154966621 9386.22459552077
 -636858.836932036 -484092.824658244 8059.71066331201
 -678229.441899145 -424209.871549408 7128.04469749106
 -716564.798218317 -355672.577941048 5648.65073383443
 -750563.529398852 -276838.959564682 3818.21993629889
 -777695.189745256 -187583.235795610 1649.69558943076
 -795093.050198349 -88454.6982447047 -1675.67440867037
 -799922.567721117 8206.06375896743 -7519.71861432100
 -792550.012779342 107940.466226889 -14605.9232568598
 -780956.579719997 171210.277056677 -28175.5500783781
 -0.000000000000000 0.000000000000000 0.000000000000000
 0.000000000000000 0.000000000000000 0.000000000000000
 0.000000000000000 -0.000000000000000 -0.000000000000000
 -0.000000000000000 0.000000000000000 0.000000000000000
 -0.000000000000000 0.000000000000000 0.000000000000000
 -0.000000000000000 0.000000000000000 -0.000000000000000
 -0.000000000000000 -0.000000000000000 0.000000000000000
 -0.000000000000000 0.000000000000000 0.000000000000000
 -556490.137755347 -574664.640828830 8903.77235256150
 -593304.275517628 -536556.751362072 9843.23220705688
 -628091.889590247 -495436.072450833 6608.80817135370
 -665560.051726478 -443838.298684550 6114.09573472622
 -701347.462760508 -384821.596128226 4906.69264605515
 -732957.668928785 -320572.487319043 2517.12784019735
 -759020.823896920 -252758.739378978 -639.185724879811
 -780075.740256274 -177388.732726381 -3882.90681783295
 -795399.729509749 -85379.0718345138 -7048.71537899032
 -799227.915304717 -31172.0414765787 -16218.6074574488
 0.000000000000000 0.000000000000000 -0.000000000000000
 -0.000000000000000 0.000000000000000 -0.000000000000000
 -0.000000000000000 0.000000000000000 0.000000000000000
 0.000000000000000 -0.000000000000000 0.000000000000000
 0.000000000000000 0.000000000000000 -0.000000000000000
 -0.000000000000000 -0.000000000000000 0.000000000000000
 -0.000000000000000 0.000000000000000 -0.000000000000000
 -0.000000000000000 -0.000000000000000 -0.000000000000000
 -0.000000000000000 0.000000000000000 -0.000000000000000
 0.000000000000000 -0.000000000000000 0.000000000000000
 0.000000000000000 -0.000000000000000 0.000000000000000
 0.000000000000000 -0.000000000000000 0.000000000000000
 -655672.903508342 -458358.865129622 440.865087163193
 -688245.567328875 -407806.769952263 3417.22595941086
 -719305.725163069 -350130.070207133 2864.90564928934
 -744617.823480623 -292479.013371585 -568.939508737953
 -763061.953915027 -240192.800736425 -6623.66679225317
 -772974.545572473 -205713.209364427 -13871.8199965189
 0.000000000000000 0.000000000000000 0.000000000000000
 -0.000000000000000 -0.000000000000000 -0.000000000000000
 0.000000000000000 0.000000000000000 -0.000000000000000
 -0.000000000000000 0.000000000000000 0.000000000000000
 0.000000000000000 0.000000000000000 -0.000000000000000
 -0.000000000000000 0.000000000000000 0.000000000000000
 -0.000000000000000 0.000000000000000 0.000000000000000
# End: Data Text
# End: Segment
