# OOMMF OVF 2.0
#
# Segment count: 1
#
# Begin: Segment
# Begin: Header
#
# Title: Oxs_TimeDriver::Magnetization
# Desc: Oxs vector field output
# Desc:  MIF source file: C:/Users/Victor H. González/Documents/GitHub/Intro-to-magnetism-in-python/domain_wall_conversion_thin_film/drive-3/domain_wall_conversion_thin_film.mif
# Desc:  Iteration: 184, State id: 972
# Desc:  Stage: 66, Stage iteration: 2
# Desc:  Stage simulation time: 2e-12 s
# Desc:  Total simulation time: 1.34e-10 s
# meshunit: m
# meshtype: rectangular
# xbase: -4.7499999999999995e-08
# ybase: -4.7499999999999995e-08
# zbase: 0
# xnodes: 20
# ynodes: 20
# znodes: 1
# xstepsize: 5.0000000000000001e-09
# ystepsize: 5.0000000000000001e-09
# zstepsize: 5.0000000000000001e-09
# xmin: -4.9999999999999998e-08
# ymin: -4.9999999999999998e-08
# zmin: -2.5000000000000001e-09
# xmax: 4.9999999999999998e-08
# ymax: 4.9999999999999998e-08
# zmax: 2.5000000000000001e-09
# valuedim: 3
# valuelabels: Magnetization_x Magnetization_y Magnetization_z
# valueunits: A/m A/m A/m
#
# End: Header
#
# Begin: Data Text
 0.000000000000000 -0.000000000000000 -0.000000000000000
 -0.000000000000000 0.000000000000000 0.000000000000000
 0.000000000000000 0.000000000000000 -0.000000000000000
 0.000000000000000 0.000000000000000 0.000000000000000
 0.000000000000000 0.000000000000000 0.000000000000000
 0.000000000000000 -0.000000000000000 0.000000000000000
 -0.000000000000000 -0.000000000000000 0.000000000000000
 491718.869151057 -631019.409354144 5201.80152952020
 520303.124776440 -607651.968649180 6613.87516118505
 541745.242214058 -588521.856786387 12414.3716367459
 553446.909183764 -577319.645011289 19963.6218902716
 554273.034153458 -576229.717081672 27216.1121818418
 542113.776753383 -587447.243927069 31912.2023162520
 -0.000000000000000 -0.000000000000000 -0.000000000000000
 -0.000000000000000 0.000000000000000 -0.000000000000000
 -0.000000000000000 -0.000000000000000 -0.000000000000000
 0.000000000000000 -0.000000000000000 -0.000000000000000
 0.000000000000000 0.000000000000000 0.000000000000000
 0.000000000000000 0.000000000000000 -0.000000000000000
 0.000000000000000 0.000000000000000 0.000000000000000
 0.000000000000000 0.000000000000000 -0.000000000000000
 -0.000000000000000 0.000000000000000 -0.000000000000000
 0.000000000000000 -0.000000000000000 -0.000000000000000
 -0.000000000000000 -0.000000000000000 0.000000000000000
 0.000000000000000 -0.000000000000000 -0.000000000000000
 420330.573505715 -680670.776503363 -3082.69211326108
 450602.307902178 -661025.138625415 -1823.79233503955
 467056.851721498 -649501.550299433 2373.48238580450
 485429.096548397 -635867.383979812 5591.26236887253
 503456.545759054 -621634.328960050 10112.7439773352
 516996.686727933 -610302.244277828 15671.5200853867
 525460.255076676 -602839.995270789 21805.0553007867
 532626.939379854 -596175.022752845 29730.2151437743
 551213.518918065 -577937.920211727 46383.3692535022
 546401.551093467 -580205.433277054 69332.5331892511
 -0.000000000000000 -0.000000000000000 -0.000000000000000
 0.000000000000000 -0.000000000000000 0.000000000000000
 0.000000000000000 -0.000000000000000 0.000000000000000
 0.000000000000000 0.000000000000000 -0.000000000000000
 -0.000000000000000 -0.000000000000000 0.000000000000000
 0.000000000000000 -0.000000000000000 0.000000000000000
 -0.000000000000000 -0.000000000000000 -0.000000000000000
 -0.000000000000000 -0.000000000000000 -0.000000000000000
 322216.271431655 -732176.432261423 -9713.21088084643
 360811.825273769 -713950.636124036 -9450.71006303156
 387126.914645720 -700074.726917342 -5303.64860221073
 407128.887864442 -688652.715273106 -1872.54191976064
 422768.147860901 -679164.432872906 1663.21215951666
 437894.720319795 -669497.461036207 4622.07552079930
 453689.820881533 -658866.657579713 7763.63047944864
 468958.392898152 -648022.491674015 12036.4452802680
 483291.070548485 -637230.795862750 19148.2096350006
 497780.664459360 -625420.813752947 32606.9902781585
 512539.078783456 -611378.307352619 59331.7623069882
 513930.301368645 -603556.805060635 107679.284916518
 494498.843365583 -598601.332392946 192736.448985370
 445981.704248246 -614696.915182982 251491.594174348
 0.000000000000000 0.000000000000000 -0.000000000000000
 0.000000000000000 -0.000000000000000 0.000000000000000
 -0.000000000000000 -0.000000000000000 -0.000000000000000
 -0.000000000000000 -0.000000000000000 -0.000000000000000
 0.000000000000000 0.000000000000000 0.000000000000000
 253346.690301080 -758781.119010925 -8165.04415278274
 286873.339191501 -746741.254248035 -9010.35322220794
 313937.479398827 -735788.345468961 -7666.13988655442
 335595.612926924 -726191.091082009 -4699.34222234351
 352609.361728906 -718097.707199581 -1523.46179435474
 366959.770441269 -710871.676488551 1409.41266039419
 380665.182319399 -703619.384720032 3712.19826288173
 395384.582836916 -695438.316534592 6048.10304235102
 411416.026089453 -686021.203266490 10571.7617056416
 427628.631809705 -675792.480522898 20935.0549382630
 441318.027782697 -665957.237579961 41705.5879812058
 447217.061951133 -658745.147788314 77792.8644873547
 434877.950204593 -658217.339821833 132782.159884983
 392634.112345076 -666152.488783153 205132.434078587
 310159.336843215 -685930.605156286 270740.448915393
 194956.668557940 -709397.352081624 314240.822052721
 0.000000000000000 0.000000000000000 -0.000000000000000
 0.000000000000000 0.000000000000000 -0.000000000000000
 0.000000000000000 0.000000000000000 -0.000000000000000
 -0.000000000000000 0.000000000000000 0.000000000000000
 224185.917588874 -767921.179113158 -6143.04682486922
 242836.773039539 -762226.394627633 -6420.66917883869
 261410.224442183 -756066.481883570 -5307.49746011755
 277855.692915975 -750190.441905915 -3242.65125970950
 291814.140557947 -744878.399520326 -822.981448722495
 304016.856998087 -739980.955209483 1391.61354711371
 315914.737823213 -734975.106921252 3077.43922523315
 329178.255144361 -729118.627007818 5263.46752137425
 344127.539866523 -722115.392418099 11206.9772137618
 358034.354448344 -714943.747266793 25823.2313793833
 364438.843020584 -710149.045353867 53597.2301598658
 353734.382891311 -711055.348833002 96292.6646037040
 314542.819603861 -719921.215765735 150918.049702612
 238200.329129621 -735037.512634227 207317.288770205
 128424.381663259 -750241.639946791 246261.364985170
 20738.2306010141 -757517.659046323 256392.125511916
 -0.000000000000000 -0.000000000000000 0.000000000000000
 0.000000000000000 -0.000000000000000 -0.000000000000000
 -0.000000000000000 -0.000000000000000 -0.000000000000000
 159069.593241063 -783999.515902932 -6451.63313355026
 185084.339625126 -778273.302979220 -5869.67591494335
 196390.320012164 -775507.274257102 -4394.28945793212
 207335.028296063 -772659.466864458 -3087.76718707290
 217934.837846987 -769741.488565980 -1564.36339659172
 227597.680080451 -766941.507714653 140.592933894919
 236401.570964556 -764271.913462809 1655.15479236843
 245364.447115376 -761438.140006857 2871.76507799327
 255815.309528848 -757977.883315052 5296.77410259819
 267310.511126013 -753908.533728787 12923.3669165391
 275211.074065631 -750529.475964610 31054.3140308920
 269963.920833967 -750422.087096684 63136.1437324707
 238994.556137095 -755868.943361395 107441.810290787
 170823.898181791 -766012.036853730 155063.713373492
 61615.6278608447 -774624.162983398 190160.249593818
 -77959.1312610429 -771959.275768180 194939.094099902
 -225762.872844256 -750555.287445371 160305.601065296
 -372525.366441362 -704139.467771224 73569.4317266733
 -0.000000000000000 0.000000000000000 0.000000000000000
 -0.000000000000000 0.000000000000000 0.000000000000000
 129976.382203689 -789353.148157752 -5267.59553168880
 139202.677614426 -787784.991134842 -4174.00139575974
 145531.845560252 -786647.163060323 -2592.83184433604
 151042.300606189 -785610.976449090 -1271.65651670632
 156342.339971952 -784574.451687337 -49.9160095130099
 161210.910211046 -783587.715795078 1155.02553130591
 165667.099457704 -782655.642736085 2134.72495546740
 170491.007759159 -781616.002998573 3039.75818123866
 176526.296001981 -780259.886984784 5742.43696641567
 182366.076663255 -778802.353404557 14474.4054792005
 181854.500286270 -778308.610626719 34126.9299811280
 163859.827413117 -780206.297453293 66543.8981001791
 115477.791045599 -784354.400897552 107018.940229619
 28241.2510924940 -786601.677437810 143039.270093061
 -93863.5525027210 -778761.817143264 157224.888841718
 -229625.211096916 -754081.887697416 136501.901361842
 -347144.909398552 -715883.779690599 83670.9379329179
 -416475.890330155 -682694.320067711 21824.2553364428
 -0.000000000000000 -0.000000000000000 -0.000000000000000
 50922.0807175541 -798300.132374956 -11128.3577190442
 81345.5014894721 -795822.863609577 -6991.36207613646
 88310.8567734609 -795102.984775278 -3526.49647408628
 91022.5805763014 -794803.732735951 -1384.28834772313
 92379.1900675262 -794648.403326253 18.2620973482760
 93103.0085699147 -794563.155962600 1104.98053493264
 93228.6627344860 -794546.594795712 2031.04487370492
 92875.9764001597 -794585.946552481 2688.22413775888
 92691.4734799726 -794604.763983412 3399.97043770787
 93070.3265694048 -794543.768470978 6173.67768850679
 91863.2036672434 -794565.961803223 15036.0950951417
 82227.3087898657 -795036.962168526 33983.7972424681
 53202.8997301962 -795721.785642769 63216.2266651696
 -6002.00518279071 -794174.760067999 96179.1370554067
 -99131.0719680822 -784768.880285057 119627.902709175
 -216202.717758676 -761083.597397761 118355.999450156
 -333337.874700898 -722292.992009772 84727.1797209066
 -424680.141799941 -677458.838359038 26387.4873757383
 -479945.457524882 -638896.261289501 -38261.2743061450
 -513177.015994063 -605299.627139493 -101300.106812480
 20801.1830468466 -799706.211646492 -6106.21305456329
 30858.4049698971 -799393.973270375 -4127.26806946890
 34457.3631696550 -799255.425908563 -1858.56910458296
 34162.5529222199 -799270.227485867 -153.076867338021
 31967.4319423532 -799360.365809408 1043.48840915231
 28611.9459681834 -799485.730881338 1980.57189899896
 24235.3993774245 -799628.100798877 2746.96738190252
 18999.6954664370 -799767.794637354 3238.24537156227
 13425.3174326608 -799878.295351474 3804.40237777073
 7591.91992476953 -799938.825600779 6343.34677456979
 -965.100589395016 -799869.790550082 14400.9286582680
 -18908.8155359452 -799175.996363127 30986.8283635270
 -55787.9051076824 -796152.402152070 55036.9166213491
 -119192.467613415 -787088.063596016 79281.3711340742
 -208497.870936128 -766900.965100069 91605.3903636889
 -310965.420143283 -732691.981666590 80392.5834676111
 -404914.285041662 -688670.441278238 42159.7566268525
 -470838.674201599 -646610.039740862 -14366.6065026376
 -501797.179304346 -618776.687983149 -72904.0551053731
 -504007.376409241 -610134.175077324 -117101.891222079
 -15822.2426190077 -799842.608505895 -1207.58312003518
 -16179.8400322498 -799836.186167469 -536.724890787927
 -18632.4606155588 -799782.877656937 424.285516905254
 -23068.2027143043 -799666.264489625 1312.80643753446
 -29010.1684204368 -799471.156948720 2068.65543129530
 -36271.4577688822 -799172.509993218 2771.39359517964
 -44900.3625647359 -798731.737882304 3401.22640679557
 -54842.0683313798 -798108.984602125 3794.23753896163
 -65734.8838150977 -797283.707947890 4196.91442367065
 -77651.4818650370 -796198.297910095 6206.26854321618
 -92917.1321957756 -794482.989066941 12774.4521515052
 -117344.236594809 -790916.017025667 26118.6552149495
 -158557.495924751 -782864.576858995 44526.1135229644
 -221193.064541927 -766399.948862048 60866.6294680545
 -301784.438337315 -738060.592332363 64751.1762320388
 -387323.620472009 -698352.539946303 47792.7083873926
 -459972.034180656 -654478.855813253 9118.93991018499
 -505705.576642452 -618393.712052926 -43024.2564854823
 -520284.014227441 -600224.706340142 -95051.8092319718
 -510812.209137711 -601335.455209309 -132161.103597335
 -54249.5245878049 -798151.751769654 3281.80271037965
 -62426.0242461634 -797555.149639674 2962.22552400621
 -71055.0452356533 -796833.322399992 2799.43914935345
 -79915.0826245565 -795993.328454260 2863.67341349259
 -89605.9032583909 -794959.733326523 3131.21233250091
 -100575.954294703 -793644.615000319 3564.05649593449
 -113147.956739696 -791947.684625269 4050.27188069722
 -127430.860972188 -789773.625871800 4358.38837147292
 -143221.958397188 -787062.033106203 4563.62526995595
 -160600.442070156 -783692.110784676 5845.81052803121
 -181396.308998416 -779092.049100332 10533.6655726764
 -210146.494966962 -771638.234485065 20319.5899041436
 -252504.443245923 -758367.573845031 33468.3295290982
 -311007.815437694 -735778.619104166 43634.4176750439
 -381084.306140487 -702138.374538751 42148.0084168198
 -451009.517434692 -660355.063042383 22838.6929927323
 -506849.297858729 -618797.836299415 -13893.4175520782
 -538961.984925636 -588064.615551343 -60827.5163184418
 -545350.253754013 -575429.478167839 -107116.835212411
 -532792.528951061 -579950.627025580 -140674.771393343
 -93218.8289283043 -794512.625976352 7741.90528205796
 -110376.744553780 -792325.050557666 6163.48282239094
 -123952.193738778 -790324.320343352 4829.32098362453
 -136259.897434043 -788299.144142643 4207.10057396918
 -149160.011847944 -785960.846865447 4103.42053302428
 -163463.977293259 -783109.780744024 4312.70570695810
 -179578.233140431 -779570.369504780 4658.02236385322
 -197685.907046001 -775175.123478456 4879.55895138049
 -217697.520633928 -769794.721659169 4886.30898754622
 -239614.533762760 -763253.362832787 5401.78989748930
 -264598.302457250 -754931.637886045 8121.60424027802
 -295739.941812905 -743189.877906334 14376.7935947587
 -336853.883293008 -725264.613428087 22818.8917221731
 -389146.787897888 -698399.857905993 28326.9473407242
 -448200.256625374 -662227.568878525 23899.3091571210
 -504400.868810074 -620932.425958430 4762.97564774267
 -547298.147223141 -582802.425881663 -28391.3795467077
 -570602.353325873 -556381.556536275 -69660.0166899776
 -574288.273046415 -545817.995509914 -110795.736465379
 -564051.228585518 -549185.846799384 -142271.280328856
 -128219.909151355 -789566.097452977 12042.9502238578
 -161532.999298402 -783478.164366204 8309.99994147221
 -176870.054396729 -780179.863898995 6030.24246980093
 -191295.685182515 -776774.945963509 5161.79754939468
 -206918.180589936 -772761.602859699 4936.76888862885
 -224269.785295393 -767904.953802329 5004.53088709342
 -243536.518360650 -762012.404794866 5201.84231966892
 -264851.868631792 -754867.674444684 5318.05986459186
 -288209.930873242 -746262.980137301 5157.54036677666
 -313544.383484945 -735978.771113914 5016.77732206470
 -341374.586748580 -723483.149336639 5960.21376919764
 -373420.198320189 -707443.777360334 8980.94430743127
 -411873.077032877 -685700.979977424 13218.7167861015
 -457049.014361928 -656417.295472193 14917.5291439972
 -505210.420235978 -620230.979212227 8715.71628884202
 -548990.997475758 -581829.454179809 -9130.76882843158
 -580780.514149530 -548856.777003510 -38081.9211900688
 -596607.261048450 -527873.062597720 -73551.3823661471
 -598642.560836588 -519220.995501631 -109711.631950803
 -595894.977468359 -514685.983231199 -141447.921488149
 0.000000000000000 0.000000000000000 -0.000000000000000
 -208795.672837366 -772249.275448231 5951.77066698239
 -226047.656064534 -767375.240804835 6139.78724812398
 -243344.205967967 -762068.524835483 5929.66077367808
 -262102.693907933 -755822.891094399 5825.38787624009
 -282585.880525824 -748406.294812464 5765.24175761382
 -304683.525622721 -739685.684179864 5747.85468454711
 -328497.624290135 -729422.272554734 5697.29206056295
 -354168.354465187 -717311.424004345 5394.22731086242
 -381661.527347154 -703072.947571786 4786.32800371235
 -411025.332691398 -686323.062728110 4339.29181234709
 -442865.138235674 -666219.785191146 4654.79917513093
 -478047.299120031 -641438.557709980 5230.34291263689
 -516212.456130953 -611156.536162160 3519.72179570362
 -554273.922263020 -576854.984991214 -4329.59466396815
 -586702.135047808 -543447.161527775 -21113.6770304931
 -607887.505860884 -518002.336668965 -46328.8185012911
 -614719.902070876 -506327.240724116 -75843.0438384149
 -606684.834107862 -511500.557450220 -101492.323806431
 0.000000000000000 -0.000000000000000 0.000000000000000
 -0.000000000000000 -0.000000000000000 -0.000000000000000
 -241569.955464378 -762628.567348027 6451.73477708112
 -271142.439695205 -752616.209170814 7114.70937469108
 -291883.727567926 -744817.606549992 7114.95285960397
 -314616.278358746 -735504.494137121 7052.41063674210
 -338437.126964558 -724855.156205903 6731.53873131058
 -362915.499973430 -712917.834271128 6364.07551811109
 -388348.236577490 -699391.926796946 6048.13015815916
 -415181.177942334 -683807.942454260 5593.50685055683
 -443526.439240517 -665779.415689529 4697.58860878053
 -473155.396479817 -645068.191356012 3316.51665319473
 -503904.026270613 -621351.830846925 1623.14861879892
 -535697.956522748 -594160.862491139 -754.228835475283
 -567669.010742345 -563668.027341992 -5499.92683547384
 -597121.610026086 -532178.142510657 -15238.3553496461
 -619764.631477421 -504853.696238843 -31851.9538432805
 -631459.587459591 -488147.350699679 -54506.4529230043
 -631854.113296754 -484217.546343824 -79333.1413895856
 -625284.786971549 -489004.683160976 -99465.3458676813
 -0.000000000000000 0.000000000000000 0.000000000000000
 0.000000000000000 -0.000000000000000 -0.000000000000000
 0.000000000000000 0.000000000000000 -0.000000000000000
 -310040.220002979 -737444.878268659 7079.08862969499
 -336837.952466125 -725580.293316168 8569.23156722881
 -365089.277249309 -711783.360941146 8617.81439248154
 -392107.756753952 -697273.315112334 7837.80107175155
 -418071.017860182 -682032.051582108 6993.18525805139
 -444017.821975400 -665438.179233431 6340.61406477174
 -470878.977489542 -646715.069822387 5710.25595119892
 -498905.875613320 -625357.148450074 4622.13813060531
 -527643.384066342 -601319.619900513 2678.42747174062
 -556489.964857167 -574733.700741190 -303.719616185689
 -584923.992324954 -545748.447756898 -4749.20767853747
 -611815.134314778 -515306.175609161 -11907.4263571157
 -634555.339960855 -486604.505501666 -23570.6544805765
 -649476.119786166 -465305.083499518 -40889.4741591415
 -652233.410438768 -459049.253979652 -62172.0252858062
 -641889.334410569 -470517.730264636 -81185.8847126288
 0.000000000000000 -0.000000000000000 0.000000000000000
 -0.000000000000000 0.000000000000000 0.000000000000000
 -0.000000000000000 0.000000000000000 -0.000000000000000
 -0.000000000000000 -0.000000000000000 0.000000000000000
 -344171.566803219 -722129.902310479 8621.87875553434
 -381252.501084175 -703233.811957833 10427.6620733637
 -414564.126409189 -684128.165454373 10258.5733228520
 -443308.210557953 -665883.493552443 8775.16189591445
 -469391.425771212 -647777.533426403 7480.41445871922
 -494726.576451702 -628651.762407408 6525.04210234373
 -520794.639725872 -607239.739847413 5730.75761532293
 -547746.064171920 -583056.335478839 4422.53797713330
 -574646.643926391 -556576.212154732 2038.30508670765
 -600718.474149556 -528331.662363590 -1723.18297180894
 -625651.467963860 -498503.889743425 -7356.12298305129
 -648465.953777915 -468223.638461349 -16078.9047175099
 -666230.127555402 -441911.942210188 -29176.2312427753
 -676421.020538649 -424508.825016522 -47401.0596563568
 -673522.151767050 -426341.247101413 -67831.0555652415
 -660885.425040887 -442847.882276887 -84357.6204702536
 -0.000000000000000 -0.000000000000000 -0.000000000000000
 0.000000000000000 0.000000000000000 0.000000000000000
 0.000000000000000 -0.000000000000000 -0.000000000000000
 -0.000000000000000 0.000000000000000 0.000000000000000
 0.000000000000000 0.000000000000000 -0.000000000000000
 -419493.895187788 -681110.257765756 10662.4887546566
 -459253.333979841 -654946.535882888 11463.4359336255
 -488638.825359129 -633363.959387348 9066.05210846623
 -514990.791734528 -612147.286907890 7757.80638790845
 -539095.215208078 -591043.734966325 6606.98848291466
 -564333.722831820 -567004.741761563 5750.83425954974
 -590143.400274001 -540105.739720076 4069.03360406711
 -614482.065395482 -512260.436014398 1018.33277581497
 -636635.783412129 -484440.964491457 -3439.65140854655
 -657440.453670848 -455718.549623846 -9625.66391518480
 -676917.521408336 -425930.768081379 -19121.9771990489
 -689401.670725908 -404547.174176004 -32663.7454456317
 -698018.904237976 -387448.860107373 -51507.1852066510
 -686930.711314459 -404333.540724132 -68121.8445030550
 -0.000000000000000 0.000000000000000 0.000000000000000
 0.000000000000000 0.000000000000000 0.000000000000000
 0.000000000000000 -0.000000000000000 -0.000000000000000
 -0.000000000000000 0.000000000000000 0.000000000000000
 -0.000000000000000 0.000000000000000 0.000000000000000
 -0.000000000000000 0.000000000000000 -0.000000000000000
 -0.000000000000000 -0.000000000000000 0.000000000000000
 -0.000000000000000 0.000000000000000 0.000000000000000
 -521237.783730159 -606844.421929974 7142.85548974651
 -552027.798791836 -578968.734725483 7779.04694763054
 -574684.809467764 -556503.364998524 6432.30225661718
 -600833.695829308 -528170.571344619 5892.15763488010
 -626144.879564046 -497925.071935907 3634.90486102119
 -647274.629981775 -470143.827222024 -578.884258495264
 -663756.209479772 -446531.022912999 -6143.28522178077
 -678198.756481055 -424135.123196373 -12483.7485856255
 -696335.151920089 -393242.320439333 -21859.4056624166
 -695195.840293946 -394507.146554502 -32662.7456809355
 0.000000000000000 0.000000000000000 -0.000000000000000
 -0.000000000000000 0.000000000000000 -0.000000000000000
 -0.000000000000000 0.000000000000000 0.000000000000000
 0.000000000000000 -0.000000000000000 0.000000000000000
 0.000000000000000 0.000000000000000 -0.000000000000000
 -0.000000000000000 -0.000000000000000 0.000000000000000
 -0.000000000000000 0.000000000000000 -0.000000000000000
 -0.000000000000000 -0.000000000000000 -0.000000000000000
 -0.000000000000000 0.000000000000000 -0.000000000000000
 0.000000000000000 -0.000000000000000 0.000000000000000
 0.000000000000000 -0.000000000000000 0.000000000000000
 0.000000000000000 -0.000000000000000 0.000000000000000
 -599960.684354006 -529173.301945706 4774.27872585945
 -629195.605192276 -494041.754085327 5969.55836058120
 -653938.854474796 -460818.215467163 3247.59939809106
 -671570.108203392 -434727.505252562 -2363.46029563692
 -680864.758208609 -419915.688491170 -9695.13220741957
 -679105.257617235 -422571.711352654 -15786.0014290331
 0.000000000000000 0.000000000000000 0.000000000000000
 -0.000000000000000 -0.000000000000000 -0.000000000000000
 0.000000000000000 0.000000000000000 -0.000000000000000
 -0.000000000000000 0.000000000000000 0.000000000000000
 0.000000000000000 0.000000000000000 -0.000000000000000
 -0.000000000000000 0.000000000000000 0.000000000000000
 -0.000000000000000 0.000000000000000 0.000000000000000
# End: Data Text
# End: Segment
