# OOMMF OVF 2.0
#
# Segment count: 1
#
# Begin: Segment
# Begin: Header
#
# Title: Oxs_TimeDriver::Magnetization
# Desc: Oxs vector field output
# Desc:  MIF source file: C:/Users/Victor H. González/Documents/GitHub/Intro-to-magnetism-in-python/domain_wall_conversion_thin_film/drive-3/domain_wall_conversion_thin_film.mif
# Desc:  Iteration: 181, State id: 956
# Desc:  Stage: 65, Stage iteration: 2
# Desc:  Stage simulation time: 2e-12 s
# Desc:  Total simulation time: 1.32e-10 s
# meshunit: m
# meshtype: rectangular
# xbase: -4.7499999999999995e-08
# ybase: -4.7499999999999995e-08
# zbase: 0
# xnodes: 20
# ynodes: 20
# znodes: 1
# xstepsize: 5.0000000000000001e-09
# ystepsize: 5.0000000000000001e-09
# zstepsize: 5.0000000000000001e-09
# xmin: -4.9999999999999998e-08
# ymin: -4.9999999999999998e-08
# zmin: -2.5000000000000001e-09
# xmax: 4.9999999999999998e-08
# ymax: 4.9999999999999998e-08
# zmax: 2.5000000000000001e-09
# valuedim: 3
# valuelabels: Magnetization_x Magnetization_y Magnetization_z
# valueunits: A/m A/m A/m
#
# End: Header
#
# Begin: Data Text
 0.000000000000000 -0.000000000000000 -0.000000000000000
 -0.000000000000000 0.000000000000000 0.000000000000000
 0.000000000000000 0.000000000000000 -0.000000000000000
 0.000000000000000 0.000000000000000 0.000000000000000
 0.000000000000000 0.000000000000000 0.000000000000000
 0.000000000000000 -0.000000000000000 0.000000000000000
 -0.000000000000000 -0.000000000000000 0.000000000000000
 495472.639482641 -628085.633591283 3911.57261737682
 524700.421668606 -603873.094092182 5172.40102086359
 547044.107274488 -583625.977680034 11111.3848498827
 559447.884939286 -571528.321732780 19324.6343890954
 560478.173730475 -570183.649191057 27474.0416924721
 548193.958054107 -581741.348388527 32563.5982052066
 -0.000000000000000 -0.000000000000000 -0.000000000000000
 -0.000000000000000 0.000000000000000 -0.000000000000000
 -0.000000000000000 -0.000000000000000 -0.000000000000000
 0.000000000000000 -0.000000000000000 -0.000000000000000
 0.000000000000000 0.000000000000000 0.000000000000000
 0.000000000000000 0.000000000000000 -0.000000000000000
 0.000000000000000 0.000000000000000 0.000000000000000
 0.000000000000000 0.000000000000000 -0.000000000000000
 -0.000000000000000 0.000000000000000 -0.000000000000000
 0.000000000000000 -0.000000000000000 -0.000000000000000
 -0.000000000000000 -0.000000000000000 0.000000000000000
 0.000000000000000 -0.000000000000000 -0.000000000000000
 423024.758648817 -678996.717784084 -3675.70517729498
 453559.292439252 -658997.154120228 -2592.12334693081
 470605.606634656 -646937.788163327 1364.27650044335
 489801.053960922 -632514.481479603 4512.01256203038
 508629.097685787 -617423.172956189 9223.14935664133
 522660.220458844 -605472.322057454 15151.2762587011
 531173.260001980 -597828.944676461 21342.9324578135
 538123.523771565 -591305.541649702 27943.3279697831
 556681.980185629 -573161.475983759 39888.5370090910
 553921.381343091 -574292.452510568 57959.3157340400
 -0.000000000000000 -0.000000000000000 -0.000000000000000
 0.000000000000000 -0.000000000000000 0.000000000000000
 0.000000000000000 -0.000000000000000 0.000000000000000
 0.000000000000000 0.000000000000000 -0.000000000000000
 -0.000000000000000 -0.000000000000000 0.000000000000000
 0.000000000000000 -0.000000000000000 0.000000000000000
 -0.000000000000000 -0.000000000000000 -0.000000000000000
 -0.000000000000000 -0.000000000000000 -0.000000000000000
 323970.227356836 -731394.734316759 -10248.6291803949
 362741.296157141 -712964.918828070 -9988.82288963423
 389461.322913105 -698773.839515682 -5916.00906743389
 409984.823008156 -686953.724501854 -2650.52749506447
 426313.896054919 -676945.951330880 800.629256521519
 442177.123394662 -666681.526510722 3890.21281611893
 458493.452247279 -655539.244219771 7214.81352113217
 474032.002565837 -644334.705534718 11244.9004847448
 488759.606934879 -633105.265563056 17081.2571315651
 504466.342229231 -620284.094431873 27592.6032242543
 522396.947754417 -603909.214496702 48939.6528680392
 531591.209418875 -591055.904516381 89798.1280701402
 529063.103589948 -576606.260222497 166184.996591141
 493313.845672384 -588029.392699828 225528.009322555
 0.000000000000000 0.000000000000000 -0.000000000000000
 0.000000000000000 -0.000000000000000 0.000000000000000
 -0.000000000000000 -0.000000000000000 -0.000000000000000
 -0.000000000000000 -0.000000000000000 -0.000000000000000
 0.000000000000000 0.000000000000000 0.000000000000000
 254561.384516782 -758368.651787886 -8688.46927385955
 288332.942200472 -746173.136577417 -9474.42305570461
 315649.105611468 -735050.870581417 -8115.40412929690
 337672.663913234 -725223.720149285 -5265.71728942837
 355262.056266056 -716787.100037659 -2263.75732261749
 370341.527034333 -709116.837413515 681.359326386532
 384648.132094291 -701452.352419415 3226.72614913323
 399631.231494809 -693010.831955135 5555.68238784290
 415970.965805669 -683291.236974997 9013.38337570429
 433595.423459284 -672096.381182114 16776.8637435771
 451004.129816760 -659893.981989166 33692.8393387764
 463887.623673038 -648475.244383681 65483.8149813149
 462822.296818771 -641915.982222154 117215.158299447
 436419.704081019 -642880.768650919 190373.735553622
 368809.248263191 -657970.638671650 266560.269060416
 261826.181981445 -679228.939663146 331805.813621609
 0.000000000000000 0.000000000000000 -0.000000000000000
 0.000000000000000 0.000000000000000 -0.000000000000000
 0.000000000000000 0.000000000000000 -0.000000000000000
 -0.000000000000000 0.000000000000000 0.000000000000000
 225207.600234164 -767618.984887629 -6529.22942275191
 244087.282187193 -761823.982916947 -6754.08965215565
 262904.959936868 -755545.708589070 -5627.10167256896
 279680.079190664 -749510.131697316 -3689.95758468037
 294181.454770532 -743945.710892340 -1432.10124843734
 307045.306465139 -738730.310999507 841.063790560746
 319379.130607960 -733477.646419515 2741.00984892828
 332773.459167359 -727489.433548837 4577.00213910592
 348380.405178723 -720108.242381498 8672.51645938939
 365118.903315345 -711543.433383797 19852.6786655573
 377962.687305322 -703712.250307447 43969.0319675994
 377535.043783476 -700154.091066254 85155.9714793741
 351186.841095231 -704413.978177423 143069.039242633
 286937.939942210 -716665.764846947 209897.117936530
 182471.211290584 -731904.890142119 266494.819529761
 70354.2405127160 -740502.212343280 294460.106562141
 -0.000000000000000 -0.000000000000000 0.000000000000000
 0.000000000000000 -0.000000000000000 -0.000000000000000
 -0.000000000000000 -0.000000000000000 -0.000000000000000
 159592.840681721 -783890.497986228 -6768.48358509439
 185860.117306235 -778085.904597281 -6192.08058284448
 197442.635324249 -775238.424936145 -4668.00372127068
 208632.603993374 -772309.047364580 -3342.44068896037
 219520.643522600 -769289.941101879 -1916.66034843068
 229636.288030605 -766333.525817363 -320.043520501004
 238949.185689271 -763479.955082804 1282.51518224807
 248162.174878091 -760531.880208258 2606.55839498986
 258706.374408206 -757002.173919541 4326.72181339031
 271318.710160648 -752525.174192465 9592.69114288888
 283290.003515582 -747773.899189887 24103.3109446243
 286313.372814464 -745090.574963899 53522.7769045248
 266950.559795269 -747565.418500217 99415.0073559762
 210057.019843996 -756047.701728089 155781.645664480
 105412.640259535 -765433.986485913 207361.972419717
 -42841.4097303927 -764312.684562708 232359.062291229
 -213241.948040486 -740699.685179075 214223.826806260
 -392291.131142047 -683762.784316199 136294.252305268
 -0.000000000000000 0.000000000000000 0.000000000000000
 -0.000000000000000 0.000000000000000 0.000000000000000
 130363.204136802 -789287.240548071 -5575.56411468925
 139784.085988447 -787680.266829380 -4495.16984895535
 146358.978674542 -786492.655547466 -2890.00540498128
 152089.427568746 -785408.420092061 -1555.52894650571
 157631.631695468 -784316.337398679 -389.330895230081
 162847.813424728 -783249.626330526 782.633935190216
 167635.739161400 -782236.990012473 1884.25370832586
 172525.416951121 -781170.377032954 2796.88255646409
 178629.323557623 -779788.929215040 4559.67531823934
 185889.736076298 -778028.881474817 10773.3751689209
 190005.982442991 -776634.679482045 27134.8716911460
 180548.644179956 -777194.129744163 58064.3761353913
 142694.675990111 -780520.858520976 102104.940417965
 63016.0850278932 -783511.169752882 148792.539800316
 -61153.3668222570 -777259.301080978 179243.534358736
 -212059.273348505 -751484.921404220 174072.621307884
 -352482.368161494 -706455.654092538 129137.867939459
 -440775.090544799 -664204.720841013 67449.3022034760
 -0.000000000000000 -0.000000000000000 -0.000000000000000
 50969.4444618594 -798293.139879255 -11409.5816299050
 81515.1516094868 -795802.849134535 -7287.34296159643
 88637.5161665347 -795065.147349081 -3847.36255267150
 91529.9380981475 -794744.838980349 -1706.26664044449
 93051.4786115491 -794569.902479348 -303.977242289664
 93963.7747609313 -794462.231759843 755.870257649659
 94343.8821440294 -794415.703426200 1709.40102091358
 94171.0876417275 -794434.054943690 2517.65726421580
 93893.0788269249 -794464.574271312 3182.76236987856
 94269.0096729513 -794411.057407778 4942.23467045407
 94492.6958062132 -794317.825801875 11415.8684582892
 89267.5055822903 -794522.985371277 27650.2832504244
 67677.0074045007 -795138.294256935 56346.3900790706
 16344.6676636148 -794351.291088416 93481.9671655080
 -73290.7681589395 -786521.695738074 126538.869269392
 -196039.071250584 -763294.175172105 137661.485868580
 -328496.468583409 -720585.791995817 113341.018620758
 -438616.747795254 -666674.405508540 56219.0856680339
 -507831.160737439 -617958.582518556 -15320.0024713821
 -546861.544482011 -576545.964636497 -92396.9795400279
 20712.6857298468 -799706.692843444 -6339.56396425644
 30816.4139985724 -799394.258401617 -4378.15746610590
 34496.9628249408 -799253.032125041 -2133.11855801948
 34294.5313332568 -799264.473298608 -432.253780874794
 32185.1815437106 -799351.946628203 761.256002037333
 28950.5475347375 -799474.216105139 1686.29194138251
 24746.1975881418 -799613.242825207 2507.50941866285
 19575.7104142212 -799754.220469388 3158.86105735867
 13777.6970636128 -799872.948731343 3666.19031814739
 7801.91061493710 -799944.769053678 5243.72524204063
 408.299649624423 -799921.673834538 11187.0023306856
 -13862.1765158533 -799469.068817894 25632.9488294369
 -45014.2617059755 -797181.086390502 49759.7401955192
 -103448.793746941 -789437.280217736 78020.0466208932
 -192504.963262490 -770296.447218510 97904.1496661313
 -302037.448174769 -734696.748582809 94837.0577460195
 -409096.406396695 -684774.808073130 61021.2463140296
 -489151.121953744 -633028.562298300 2453.40700661831
 -530186.883396894 -595715.889086530 -63438.5384741303
 -536873.582617900 -581713.154142045 -115657.090509553
 -16071.5988742940 -799837.328154774 -1397.21145707733
 -16423.8553051667 -799831.053512723 -736.758876913646
 -18856.2579536431 -799777.715501629 217.538460198302
 -23278.9725724472 -799660.449261448 1120.41195633202
 -29218.1882157628 -799464.025293088 1889.37544187838
 -36438.4797644292 -799165.511333079 2592.81472457566
 -44978.5248710718 -798727.846940326 3280.06440402700
 -54946.5426660289 -798101.652908785 3824.79716011948
 -66173.0878988151 -797247.487190918 4191.25347631982
 -78431.4988681608 -796127.858624573 5378.91319376031
 -92997.6892278352 -794511.504891249 10143.8845480847
 -114717.080896851 -791433.423510773 21751.4942135617
 -151835.291264535 -784416.287719227 40461.4864704784
 -211651.641258091 -769127.863059175 60381.3962970731
 -293839.752703528 -740765.405410031 70177.0181672260
 -386563.052992924 -697954.337642112 58555.5174799944
 -470024.717899991 -647002.032568150 21566.9751174609
 -526437.862556257 -601435.159212554 -33747.9796457608
 -548570.749016674 -574946.112396553 -92233.9479984268
 -542770.200956094 -571988.639701959 -135016.684176379
 -54641.3973200224 -798125.622956034 3131.72156471403
 -62843.6806922809 -797522.925453033 2802.70831229768
 -71498.6031394457 -796794.185116280 2641.27128325232
 -80406.3425049660 -795944.304439975 2735.74752858830
 -90167.7580621384 -794896.569140653 3036.40815209158
 -101181.367925098 -793568.019473065 3482.70791241060
 -113753.445676448 -791861.103030594 4018.34591677762
 -128140.793988775 -789658.154263065 4465.01083710141
 -144350.133692233 -786855.160139367 4689.97495573460
 -162281.630704433 -783349.170435814 5361.85727451408
 -182928.884911579 -778757.589676111 8581.35110919228
 -209998.459543424 -771761.716496165 16867.1260231760
 -249618.137460457 -759460.798994478 30167.5362176269
 -306521.463350100 -737683.048472383 43223.9806381352
 -378633.363236789 -703189.639984210 46487.7022757196
 -454870.415637818 -657357.063581468 31218.5191357285
 -519429.068286575 -608417.948308648 -4587.28621708624
 -559841.920664436 -568888.208004412 -54251.5498422412
 -572217.826550920 -549059.070344673 -105360.790854971
 -562872.565897454 -550258.538903765 -142793.609533165
 -93743.3411248617 -794451.911143099 7638.51267096099
 -110964.989493007 -792243.822585778 6041.24833891418
 -124611.184719783 -790221.485367341 4696.45680972331
 -137016.798122793 -788168.508676381 4098.65380671487
 -150049.371559627 -785791.904032435 4033.56562375272
 -164477.961231543 -782897.718344595 4261.79304299769
 -180680.821420571 -779315.651501985 4642.85416785962
 -198954.220748024 -774849.880205764 4988.10501697510
 -219421.474990786 -769303.782435662 5089.85687916945
 -242039.162795097 -762488.951647121 5257.59351067687
 -267372.040540411 -753965.962898573 6893.38289124242
 -297793.992005121 -742413.888968142 11847.1850180826
 -337314.760140188 -725130.850034084 20099.8238901248
 -388692.752801000 -698682.931651664 27570.0007003426
 -449411.455121351 -661295.792368251 26780.9447510061
 -510420.713867150 -615913.719002014 10999.3454557901
 -559930.596357985 -570995.247211588 -21027.4802096619
 -589612.958554841 -536924.468902528 -63786.1567892716
 -598123.762799433 -520238.272637856 -107703.779216087
 -590761.769524801 -520657.189001321 -141126.266900140
 -128876.732595737 -789460.055573712 11983.6742695273
 -162322.019260870 -783315.963232314 8225.80138992686
 -177778.075526183 -779974.305012813 5919.40723268042
 -192344.345368973 -776516.633251306 5056.78639436164
 -208147.427712465 -772431.883413563 4861.46303696750
 -225691.251684951 -767488.767156268 4944.81565187180
 -245123.718137688 -761503.606135064 5159.52029255322
 -266643.903362155 -754236.116595021 5376.72981060056
 -290436.292176731 -745397.782249471 5376.46763245612
 -316504.450966527 -734709.698970231 5156.62267861697
 -345016.803612942 -721757.434407298 5441.60844825308
 -377116.597282209 -705498.337513791 7427.50426220357
 -414942.141320938 -683884.483524636 11181.7954835837
 -459731.733781782 -654563.993442071 13882.0547169751
 -509067.645610323 -617047.933315787 10098.5238267022
 -556130.350065242 -575058.380994844 -5185.76743597458
 -592561.278771988 -536458.653859629 -32912.6662429765
 -613063.563802785 -509323.634319986 -68865.8279592238
 -618953.326414529 -495618.150897237 -106110.452932756
 -618948.467521861 -487797.563439864 -137681.994663322
 0.000000000000000 0.000000000000000 -0.000000000000000
 -209859.027816836 -771961.520224293 5882.15409267436
 -227231.281244196 -767026.290607522 6050.97851475013
 -244687.473474793 -761638.998862283 5837.44264055284
 -263652.160171892 -755284.339746305 5753.65715720165
 -284369.915388010 -747730.700100755 5705.37895760812
 -306688.921532036 -738856.910694508 5689.54554281585
 -330728.816154203 -728413.253110050 5708.13970335507
 -356770.939438287 -716019.010546955 5592.25425766001
 -384918.891033488 -701292.531045594 5121.83806994181
 -415091.598132684 -683870.818109506 4435.00821760557
 -447499.312276501 -663119.693726270 4078.88519523656
 -482813.252889327 -637867.350272603 4075.08167217339
 -521098.973673445 -607000.035943544 2610.74721463109
 -560074.946182333 -571226.883878818 -3987.70522395745
 -594671.285653819 -534786.246931631 -19228.4193738063
 -618943.966374025 -504976.302063162 -43672.6555616263
 -628925.207248060 -488911.909293909 -73608.6179639993
 -623310.664132326 -491369.985975075 -100196.571107860
 0.000000000000000 -0.000000000000000 0.000000000000000
 -0.000000000000000 -0.000000000000000 -0.000000000000000
 -242885.598517686 -762210.976429342 6404.17389947626
 -272559.163072596 -752104.970478752 7043.86302550668
 -293466.667418291 -744196.054585595 7038.99521495591
 -316409.012898343 -734735.615686742 6993.68272946898
 -340475.075198064 -723900.537677693 6688.40181358237
 -365202.381558175 -711749.440014976 6321.00803717345
 -390873.390640500 -697983.834272889 6046.45209323415
 -418011.541115771 -682080.024833487 5761.18192453705
 -446871.844925843 -663535.501649553 5117.83775131496
 -477253.402597288 -642039.340101034 3830.85785949779
 -508795.491238960 -617352.098531010 1880.03570785501
 -541214.231412185 -589140.304287913 -926.056403827160
 -573746.195431752 -557477.889624187 -5805.67031037631
 -604102.943881717 -524242.858104051 -15134.6926080178
 -628320.557862813 -494210.508256478 -31132.7816912776
 -642156.248382706 -474083.467919751 -53667.6635249905
 -644645.058321294 -467078.173777521 -79187.9306623930
 -638964.877250170 -470860.567414575 -100071.033244886
 -0.000000000000000 0.000000000000000 0.000000000000000
 0.000000000000000 -0.000000000000000 -0.000000000000000
 0.000000000000000 0.000000000000000 -0.000000000000000
 -311644.823977692 -736769.128743551 6982.45074323547
 -338600.047783361 -724760.682099016 8483.00209097004
 -367041.098619908 -710779.610039456 8554.40682044878
 -394283.712083240 -696045.597162820 7802.63135834328
 -420492.541746405 -680541.946645162 6977.19084313730
 -446683.234535849 -663651.728704955 6361.67992891577
 -473807.757886855 -644571.052865079 5862.28408001991
 -502214.628165669 -622699.871834413 5033.57465662302
 -531542.189326987 -597872.559032123 3362.16029564169
 -561154.181589202 -570180.462538263 473.945783330406
 -590397.300582945 -539828.059212144 -4085.82324903574
 -618105.043156488 -507756.930829961 -11360.2296919546
 -641827.160041413 -477002.020127800 -22955.8146702089
 -658103.357205545 -453085.516026250 -40168.2262742220
 -662622.772367458 -443979.692009800 -61750.2601042933
 -654086.887115259 -453327.884542768 -81634.3873612708
 0.000000000000000 -0.000000000000000 0.000000000000000
 -0.000000000000000 0.000000000000000 0.000000000000000
 -0.000000000000000 0.000000000000000 -0.000000000000000
 -0.000000000000000 -0.000000000000000 0.000000000000000
 -345975.368422991 -721268.936566849 8495.03315491720
 -383169.932144605 -702192.708842919 10305.4717574602
 -416621.936272354 -682878.369665712 10163.3881838259
 -445546.885560731 -664388.356821628 8722.61927352662
 -471846.203955021 -645991.642895297 7480.44936293245
 -497416.529987442 -626524.841559607 6589.27947203328
 -523725.275414066 -604712.323752895 5902.65989487775
 -550959.565099792 -580017.683831948 4800.42365541829
 -578273.511923284 -552804.123194910 2710.49564084677
 -604942.395572484 -523492.220895086 -769.870998368071
 -630619.173179331 -492220.256925200 -6219.09085860895
 -654270.003816880 -460120.859775568 -14817.4392137314
 -673017.005346093 -431597.356042237 -27781.8784881101
 -684446.638063206 -411606.415803493 -45966.9241235212
 -683120.041527343 -410954.999017144 -66805.6707660456
 -671884.919614133 -425956.553885046 -84449.2095728933
 -0.000000000000000 -0.000000000000000 -0.000000000000000
 0.000000000000000 0.000000000000000 0.000000000000000
 0.000000000000000 -0.000000000000000 -0.000000000000000
 -0.000000000000000 0.000000000000000 0.000000000000000
 0.000000000000000 0.000000000000000 -0.000000000000000
 -421589.506662685 -679817.945340346 10480.8904747814
 -461369.334279986 -653460.129012814 11322.4192025786
 -490904.874076404 -631610.485190279 8977.72831684510
 -517423.974956642 -610091.987011075 7758.70639639216
 -541738.326874473 -588620.728094170 6724.85339138941
 -567190.423950684 -564144.676616365 5983.88035149345
 -593209.996443715 -536732.738017812 4457.36011011561
 -617824.393126925 -508222.710857742 1641.77518424411
 -640399.324022312 -479460.527310895 -2511.68121470406
 -661786.181422718 -449409.688747165 -8365.50883767692
 -681961.566457996 -417877.607173262 -17513.6317565901
 -695352.869943505 -394385.060776759 -30737.7633773804
 -705071.430872806 -374748.215347822 -49376.6388142734
 -695372.791611080 -389967.510064137 -66196.8411738081
 -0.000000000000000 0.000000000000000 0.000000000000000
 0.000000000000000 0.000000000000000 0.000000000000000
 0.000000000000000 -0.000000000000000 -0.000000000000000
 -0.000000000000000 0.000000000000000 0.000000000000000
 -0.000000000000000 0.000000000000000 0.000000000000000
 -0.000000000000000 0.000000000000000 -0.000000000000000
 -0.000000000000000 -0.000000000000000 0.000000000000000
 -0.000000000000000 0.000000000000000 0.000000000000000
 -523631.376611586 -604781.772518781 7013.49106337728
 -554412.509306166 -576685.656875741 7773.20259831678
 -577264.798530243 -553824.435329356 6621.72258243732
 -603568.443415064 -525039.536693314 6214.42051902668
 -629002.942865706 -494306.148105977 4090.20915296601
 -650311.488302986 -465934.507866885 50.5964407883494
 -667107.050363091 -441520.555459678 -5270.90717381535
 -682026.713539631 -417985.806784053 -11288.3721330836
 -700671.515861671 -385552.369069347 -20218.7429164541
 -700297.535784606 -385533.366513615 -30779.6146611060
 0.000000000000000 0.000000000000000 -0.000000000000000
 -0.000000000000000 0.000000000000000 -0.000000000000000
 -0.000000000000000 0.000000000000000 0.000000000000000
 0.000000000000000 -0.000000000000000 0.000000000000000
 0.000000000000000 0.000000000000000 -0.000000000000000
 -0.000000000000000 -0.000000000000000 0.000000000000000
 -0.000000000000000 0.000000000000000 -0.000000000000000
 -0.000000000000000 -0.000000000000000 -0.000000000000000
 -0.000000000000000 0.000000000000000 -0.000000000000000
 0.000000000000000 -0.000000000000000 0.000000000000000
 0.000000000000000 -0.000000000000000 0.000000000000000
 0.000000000000000 -0.000000000000000 0.000000000000000
 -602645.476816136 -526110.735312938 5091.50876773351
 -631813.169541457 -490684.655854708 6378.65994748650
 -656562.169107715 -457068.721821690 3781.74944427556
 -674304.067352467 -430477.845599225 -1687.95739581496
 -683863.934112479 -415032.045711922 -8861.18797796997
 -682548.271748131 -417023.070464958 -14819.4275739078
 0.000000000000000 0.000000000000000 0.000000000000000
 -0.000000000000000 -0.000000000000000 -0.000000000000000
 0.000000000000000 0.000000000000000 -0.000000000000000
 -0.000000000000000 0.000000000000000 0.000000000000000
 0.000000000000000 0.000000000000000 -0.000000000000000
 -0.000000000000000 0.000000000000000 0.000000000000000
 -0.000000000000000 0.000000000000000 0.000000000000000
# End: Data Text
# End: Segment
