# OOMMF OVF 2.0
#
# Segment count: 1
#
# Begin: Segment
# Begin: Header
#
# Title: Oxs_TimeDriver::Magnetization
# Desc: Oxs vector field output
# Desc:  MIF source file: C:/Users/Victor H. González/Documents/GitHub/Intro-to-magnetism-in-python/domain_wall_conversion_thin_film/drive-3/domain_wall_conversion_thin_film.mif
# Desc:  Iteration: 256, State id: 1356
# Desc:  Stage: 90, Stage iteration: 2
# Desc:  Stage simulation time: 2e-12 s
# Desc:  Total simulation time: 1.82e-10 s
# meshunit: m
# meshtype: rectangular
# xbase: -4.7499999999999995e-08
# ybase: -4.7499999999999995e-08
# zbase: 0
# xnodes: 20
# ynodes: 20
# znodes: 1
# xstepsize: 5.0000000000000001e-09
# ystepsize: 5.0000000000000001e-09
# zstepsize: 5.0000000000000001e-09
# xmin: -4.9999999999999998e-08
# ymin: -4.9999999999999998e-08
# zmin: -2.5000000000000001e-09
# xmax: 4.9999999999999998e-08
# ymax: 4.9999999999999998e-08
# zmax: 2.5000000000000001e-09
# valuedim: 3
# valuelabels: Magnetization_x Magnetization_y Magnetization_z
# valueunits: A/m A/m A/m
#
# End: Header
#
# Begin: Data Text
 0.000000000000000 -0.000000000000000 -0.000000000000000
 -0.000000000000000 0.000000000000000 0.000000000000000
 0.000000000000000 0.000000000000000 -0.000000000000000
 0.000000000000000 0.000000000000000 0.000000000000000
 0.000000000000000 0.000000000000000 0.000000000000000
 0.000000000000000 -0.000000000000000 0.000000000000000
 -0.000000000000000 -0.000000000000000 0.000000000000000
 329230.457090634 -724908.579076531 78197.5581788598
 330999.863912831 -723439.376764753 84110.3931503878
 313276.684729720 -730525.882288429 90496.7077382853
 280259.225022739 -743575.908326401 92464.2382017031
 238187.477863746 -758542.443916102 88769.8494236318
 197250.339308202 -771019.129584762 81374.4766935868
 -0.000000000000000 -0.000000000000000 -0.000000000000000
 -0.000000000000000 0.000000000000000 -0.000000000000000
 -0.000000000000000 -0.000000000000000 -0.000000000000000
 0.000000000000000 -0.000000000000000 -0.000000000000000
 0.000000000000000 0.000000000000000 0.000000000000000
 0.000000000000000 0.000000000000000 -0.000000000000000
 0.000000000000000 0.000000000000000 0.000000000000000
 0.000000000000000 0.000000000000000 -0.000000000000000
 -0.000000000000000 0.000000000000000 -0.000000000000000
 0.000000000000000 -0.000000000000000 -0.000000000000000
 -0.000000000000000 -0.000000000000000 0.000000000000000
 0.000000000000000 -0.000000000000000 -0.000000000000000
 332978.324256208 -726785.948088693 30126.7528344370
 348706.412332465 -718911.264877528 39628.6667756203
 331643.698521904 -725726.853115762 57732.0699213724
 311464.639751595 -733711.134405202 68247.7064394143
 285308.978439812 -743637.942475288 74842.4834753034
 249696.234781002 -756134.052836059 76896.5830054020
 205166.357385886 -769675.237922036 74207.7753787678
 153557.919809746 -782223.744049817 67423.8793632564
 104153.546228001 -791319.369677098 54458.1856287083
 78631.2647486103 -794945.566257196 43343.6372730650
 -0.000000000000000 -0.000000000000000 -0.000000000000000
 0.000000000000000 -0.000000000000000 0.000000000000000
 0.000000000000000 -0.000000000000000 0.000000000000000
 0.000000000000000 0.000000000000000 -0.000000000000000
 -0.000000000000000 -0.000000000000000 0.000000000000000
 0.000000000000000 -0.000000000000000 0.000000000000000
 -0.000000000000000 -0.000000000000000 -0.000000000000000
 -0.000000000000000 -0.000000000000000 -0.000000000000000
 259040.165950182 -756893.478434142 3233.37723863040
 292351.586905025 -744638.251395665 6665.14759919896
 307825.270482744 -738170.626341416 18647.5000723163
 309918.311940811 -736910.774905548 30218.3677895292
 297753.674101078 -741277.683178678 43013.3232912835
 276526.726389060 -748838.211733207 52671.6455103020
 248454.588656047 -758176.703197116 58637.9067234398
 213417.084473930 -768632.300480389 60477.5554472291
 172242.634938266 -779065.042523202 58224.8591912873
 127476.238048337 -788039.140000851 52384.3732401414
 84306.2716486601 -794366.466073337 43293.9965683390
 45754.6216767556 -798005.942699908 33061.0043835339
 15517.9296656938 -799597.756602356 20065.4303559480
 11185.9752072872 -799836.406509522 11687.4625388023
 0.000000000000000 0.000000000000000 -0.000000000000000
 0.000000000000000 -0.000000000000000 0.000000000000000
 -0.000000000000000 -0.000000000000000 -0.000000000000000
 -0.000000000000000 -0.000000000000000 -0.000000000000000
 0.000000000000000 0.000000000000000 0.000000000000000
 202257.857477634 -774005.827313892 2595.83757088078
 230279.807247194 -766136.271909668 2534.41088828163
 249319.003396528 -760132.909266447 6163.99184696383
 259496.627657699 -756620.828518359 13653.6473688685
 259319.590565608 -756468.969659866 22539.9177155907
 249097.908530088 -759565.828766816 31780.2412784279
 230296.586631248 -765125.497611308 39324.9932110000
 204548.691495956 -772152.326158839 44052.4461839163
 173074.572647996 -779731.917173818 45423.8884636406
 137402.336056221 -786911.737857113 43480.0513913231
 99803.5220693671 -792804.753782475 38728.2760068027
 63227.6258130838 -796860.192378877 31876.3413198407
 30263.2651709744 -799069.023559144 23933.8749354842
 4213.39096747292 -799842.133402786 15323.4777460968
 -13143.4670392563 -799850.727888332 8127.87614899708
 -18742.2144710597 -799775.702846967 2748.55095654993
 0.000000000000000 0.000000000000000 -0.000000000000000
 0.000000000000000 0.000000000000000 -0.000000000000000
 0.000000000000000 0.000000000000000 -0.000000000000000
 -0.000000000000000 0.000000000000000 0.000000000000000
 180750.676742579 -779305.213949239 3546.31761569855
 192588.559861032 -776461.524896922 4140.88944564268
 201835.251728621 -774089.675002500 6906.96852230980
 206019.160020328 -772929.505246259 11665.5743232806
 203531.582065860 -773477.328683526 17541.8674708625
 193877.047035164 -775792.232975234 23624.1801598334
 177437.175252297 -779546.325383842 28698.0037465051
 155196.906964488 -784156.663802424 31815.8244103228
 128442.330453750 -788953.459825332 32480.8555498151
 98733.6675501666 -793289.542517659 30714.2413908734
 67884.5325863887 -796658.476768953 26962.2259410895
 37796.5057088710 -798806.794141374 21889.0335506016
 10142.3889193052 -799771.237542627 16220.3436013180
 -13678.0726743182 -799813.885832142 10519.4276462876
 -33037.2342297534 -799298.645035813 5497.01722419843
 -46428.7492390526 -798650.087348386 1552.16703756362
 -0.000000000000000 -0.000000000000000 0.000000000000000
 0.000000000000000 -0.000000000000000 -0.000000000000000
 -0.000000000000000 -0.000000000000000 -0.000000000000000
 129332.411609829 -789473.193293277 2281.31069802889
 149470.092125939 -785905.861551971 3266.24220137813
 152971.079145102 -785218.965031188 5570.08981377923
 154029.072757042 -784989.848463442 8122.96466496823
 152309.204589040 -785287.263938861 11216.9199368980
 146644.213257113 -786307.663001111 14687.8801715396
 136361.429843580 -788085.175408483 18091.8974238126
 121423.648296490 -790458.414365851 20779.6244574899
 102374.484660416 -793113.069089892 22161.3295929302
 80179.7635847289 -795670.066378049 21916.9108555223
 56055.1789889060 -797780.675947692 20095.0240847075
 31284.6897662903 -799205.923250936 17063.4236554406
 7025.10780011457 -799857.682213275 13354.2526861139
 -15903.0720734639 -799785.483798526 9501.16854832027
 -37214.9297878440 -799112.239064680 5888.83502224979
 -57430.3496166838 -797931.584752603 2634.57721556543
 -77212.1890193824 -796264.743303805 -858.159752819786
 -86098.7349138612 -795338.350652150 -4890.38118658039
 -0.000000000000000 0.000000000000000 0.000000000000000
 -0.000000000000000 0.000000000000000 0.000000000000000
 105801.081350140 -792970.635922378 1923.99324323643
 109941.974374620 -792399.774544137 3919.12911395057
 108945.160230691 -792518.983688758 6679.26307675411
 105062.230072215 -793017.972243603 9188.22675472417
 98906.4616109751 -793781.130506587 11359.0802128273
 90226.8973936478 -794786.451002741 13175.8980408826
 78758.5585686877 -795981.364753719 14517.4521520975
 64516.1012160284 -797250.194309528 15159.1674343381
 47865.6321612934 -798428.044442298 14884.1897947914
 29467.0071016035 -799341.215224401 13613.1236698935
 10134.9516566167 -799853.465279759 11476.7954969860
 -9331.11868752024 -799897.303313888 8788.30900743076
 -28302.9493866221 -799477.146207467 5935.97068581380
 -46440.9129313758 -798644.255802994 3254.88540236296
 -63739.2135532986 -797456.268702847 901.200387849105
 -80334.9530356986 -795955.186302181 -1279.34335235317
 -95372.4715428753 -794285.562773729 -3812.66849137505
 -104424.049639779 -793127.617268489 -6648.35188884007
 -0.000000000000000 -0.000000000000000 -0.000000000000000
 36573.4466652705 -799135.097522467 -6743.80506682516
 63226.4530357795 -797496.355475304 -1406.64143352282
 65436.5766411044 -797311.706399836 3478.11375253590
 61715.4859354630 -797583.626860980 7180.31747447593
 54845.4116094957 -798056.751834263 9869.22880114698
 45709.2380981088 -798609.113545751 11582.2844965460
 34672.5845002981 -799152.922506344 12345.7820181740
 21977.7390435042 -799604.902608191 12205.6835728655
 7914.37517074655 -799882.113081175 11223.5394796439
 -7116.54457136288 -799912.014851282 9493.32870631005
 -22617.1160499718 -799648.028624009 7176.09777788570
 -38066.8298708946 -799081.051247250 4515.52889155403
 -53019.6455600236 -798239.098316208 1805.29887193012
 -67181.3930337704 -797173.879427527 -682.926430264414
 -80442.6701265938 -795940.483402725 -2779.15518465613
 -92852.1082950294 -794580.621937682 -4485.66899075449
 -104501.661004118 -793122.244381145 -6042.21111805718
 -115339.186469917 -791601.652394415 -7980.97681297389
 -124991.802160950 -790096.210952782 -11181.5397247310
 -123441.317347153 -790256.220651699 -16042.0351855133
 10032.5977133520 -799933.154118821 -2509.16811630471
 17785.6770038568 -799802.167446553 403.288123767605
 17876.9472130566 -799788.853919549 4266.60337929197
 12596.1414728567 -799863.230693337 7755.60473542723
 3872.12967971499 -799923.902196240 10332.3427587045
 -7245.35132369157 -799881.443302772 11712.4525215574
 -20015.0424485531 -799662.818657889 11780.2602646410
 -33789.3476268599 -799215.837945109 10598.3189539205
 -47968.1714357373 -798516.649903200 8379.40072331841
 -62004.0311993802 -797575.050187149 5435.01922652156
 -75423.5070139116 -796433.789617981 2124.46333567508
 -87856.4016600044 -795160.250788008 -1195.09585728694
 -99057.9858820035 -793832.275605970 -4222.98937337560
 -108905.849899675 -792523.647552412 -6766.38218317272
 -117362.474973149 -791295.806749997 -8774.71868766615
 -124399.619731276 -790200.904879771 -10356.8594614598
 -129859.884765008 -789301.772670172 -11794.9984545012
 -133164.731537776 -788722.794419097 -13546.5064943827
 -132616.404807025 -788767.783916388 -16070.8503723536
 -125203.319424498 -789916.826265835 -18855.6725469725
 -22583.8515113406 -799679.247710401 1752.26488911227
 -24238.2506642934 -799626.086782231 3260.14448633668
 -28844.1038331492 -799458.751853051 5807.04396617029
 -36595.3265138023 -799117.049293434 8527.81366494031
 -47098.2765093281 -798540.956652398 10681.4277380761
 -59790.7035318799 -797676.786709662 11696.8250269729
 -73934.0137689943 -796496.786606576 11253.0233006258
 -88674.1706044376 -795015.585632656 9333.27749403241
 -103167.364840084 -793295.734943992 6194.49365355154
 -116692.306482511 -791440.297302702 2271.87438095452
 -128713.024464211 -789575.329256195 -1938.23714931445
 -138890.582914058 -787828.386344671 -5986.62236531688
 -147051.816322897 -786310.696910172 -9552.55153230396
 -153125.566867802 -785109.350171040 -12484.7525174663
 -157063.341354729 -784290.861244271 -14797.0189973444
 -158762.792066207 -783911.828884615 -16631.9087936560
 -157994.471473733 -784031.752568307 -18219.7131812357
 -154308.212207986 -784726.319101983 -19838.8445689065
 -147041.944736484 -786071.162074445 -21697.8027239048
 -136852.024348814 -787853.169019875 -23641.2245235200
 -57047.1800349421 -797943.104268628 5693.99685692386
 -65577.7522335471 -797284.058074711 6139.14911992826
 -75011.1960852077 -796440.717250638 7450.12531147248
 -85500.8945485549 -795363.988721746 9258.64331485025
 -97759.9212688157 -793930.166194557 10857.6700906624
 -111848.165337342 -792059.244692669 11495.2515217852
 -127193.135102738 -789751.975194426 10664.1483129449
 -142858.660741928 -787098.207285283 8234.99479760187
 -157829.645380881 -784264.035023560 4441.44205295593
 -171224.811891375 -781461.456496047 -236.228364687674
 -182404.533970318 -778910.291189291 -5229.17455100045
 -190980.978457671 -776804.792339838 -10028.9812649094
 -196756.400933086 -775295.200437307 -14292.3360839041
 -199623.315389347 -774487.490889800 -17878.9934892116
 -199470.893074486 -774453.344167394 -20817.7934471303
 -196151.372361301 -775232.460300158 -23222.2224978949
 -189556.972210073 -776809.473302741 -25203.1044450599
 -179845.738475684 -779060.485311264 -26837.8571930437
 -167843.034098754 -781684.504183203 -28249.8110504244
 -155905.102659651 -784095.469215965 -29797.5522430995
 -92362.6814289292 -794591.438717609 9673.70642189564
 -108877.103027934 -792507.458988645 8814.98063560248
 -121990.163602772 -790595.525465709 8781.52024242961
 -134384.727527512 -788572.388826729 9712.49645880431
 -148023.828146911 -786112.145821652 10800.0227967838
 -163337.092081238 -783069.181764138 11119.8435999525
 -179796.583482056 -779469.520560647 10022.7284276539
 -196382.442604171 -775487.553373456 7279.47798068956
 -211954.550910665 -771405.118214594 3067.88862010555
 -225506.611836845 -767555.960707095 -2148.30185865825
 -236289.589906667 -764268.642828671 -7789.17778463181
 -243821.424654190 -761822.543801237 -13323.8371279469
 -247813.406757151 -760427.712807875 -18390.4601682303
 -248052.584005499 -760229.096163358 -22839.3720324753
 -244302.874931327 -761317.339609317 -26683.5850379838
 -236315.807129474 -763712.127691113 -29977.0798820958
 -224056.834179830 -767287.627071901 -32683.8247407243
 -208287.960651013 -771632.082372166 -34641.8085820832
 -191721.839898278 -775861.833966180 -35793.1655578962
 -179875.886090174 -778642.900293049 -36876.8142130544
 -124558.893774571 -790125.265619620 13680.1539165291
 -155697.938594103 -784629.224489891 10729.9577791013
 -169438.530370049 -781793.195143062 9486.01360110991
 -182651.133082455 -778807.604153979 9863.02669746955
 -197449.648948850 -775178.082296488 10610.2241783940
 -214003.336628912 -770771.136979764 10697.0234464657
 -231592.322072055 -765686.662865959 9430.30574612099
 -249092.291365648 -760204.166958920 6531.07345746848
 -265309.969651128 -754722.573734826 2111.08948122531
 -279186.422526716 -749695.372308915 -3433.68829854879
 -289891.281046132 -745567.875756966 -9570.15217631028
 -296832.805533213 -742725.547685615 -15781.2031982414
 -299593.305708454 -741466.948180561 -21693.6841151063
 -297805.142594639 -742007.858161711 -27137.3445726939
 -291035.592616109 -744491.856711830 -32096.0919795749
 -278810.093480266 -748951.373784507 -36561.8856163802
 -260914.481807592 -755178.461120909 -40362.4211628948
 -238125.821959947 -762521.905144396 -43086.3910168884
 -214121.324174617 -769543.262926340 -44217.9264370491
 -205577.778317280 -771887.238990317 -43907.4862185920
 0.000000000000000 0.000000000000000 -0.000000000000000
 -198164.287968799 -775016.631616974 8951.85404808034
 -213503.205260695 -770925.653049818 9487.82446729231
 -228671.643208490 -766556.472189055 10022.7011030450
 -245361.099000688 -761371.130182588 10579.8497939497
 -263582.000993629 -755258.674981788 10433.7249795134
 -282413.418058426 -748439.378731274 9008.75490295823
 -300749.322888844 -741291.642506579 6045.29005090826
 -317514.257808956 -734290.259092557 1584.76806289659
 -331722.777987742 -727971.997351395 -4095.07464110313
 -342514.527030767 -722891.564242510 -10563.3858164449
 -349192.664212815 -719557.853983009 -17348.7184346021
 -351206.078039116 -718383.442225837 -24073.2358468757
 -348023.643772790 -719685.190651315 -30541.2791528192
 -338977.571384904 -723703.910476470 -36699.5375864354
 -323287.986184196 -730534.983830220 -42467.8159215621
 -300519.240280729 -739885.995437638 -47506.8413636444
 -271929.537203466 -750625.311136243 -51146.5451221120
 -242453.558677599 -760571.905562292 -52408.4759739508
 0.000000000000000 -0.000000000000000 0.000000000000000
 -0.000000000000000 -0.000000000000000 -0.000000000000000
 -227176.027476703 -767002.900540598 9879.42823308307
 -254108.280601434 -758498.452848441 10444.0775707887
 -271960.263790291 -752278.074447538 10738.4181619303
 -291705.125798924 -744840.183897745 11009.9969939845
 -312185.260740758 -736498.840360649 10479.5574163876
 -332251.872794795 -727689.015182943 8797.17036497807
 -351128.471221810 -718801.312550462 5785.30666154306
 -368138.479032852 -710261.989583204 1402.28694867851
 -382515.404336874 -702612.192057226 -4251.23717742751
 -393393.780341125 -696507.405972899 -10898.0279785854
 -399970.791480171 -692599.911974519 -18130.8547954460
 -401603.094994691 -691419.711022537 -25568.2870016159
 -397657.069334429 -693383.244034523 -32992.9098521935
 -387247.325680230 -698866.826185194 -40307.1707186628
 -369252.635901066 -708103.705955008 -47345.8814776700
 -342797.114371561 -720849.923054876 -53530.6156354557
 -310295.797839927 -735089.156846104 -57969.3826961023
 -285579.875540244 -744892.292655331 -59829.8172243778
 -0.000000000000000 0.000000000000000 0.000000000000000
 0.000000000000000 -0.000000000000000 -0.000000000000000
 0.000000000000000 0.000000000000000 -0.000000000000000
 -288175.707267185 -746218.874209218 10590.2556619779
 -312227.837453585 -736458.071637413 11970.2230205601
 -337173.407698752 -725375.936021826 11993.5224713712
 -360256.532637877 -714211.575939627 10819.2183437795
 -381099.509488650 -703340.014319533 8717.11675443209
 -399889.342941647 -692861.330554443 5629.38931190624
 -416676.059213562 -682919.538377633 1402.06288625212
 -430976.788905895 -673974.798749285 -4120.44599827795
 -441814.679446210 -666844.794318398 -10854.0000136785
 -448238.839467091 -662375.967918286 -18439.6289959577
 -449638.775955601 -661153.449395856 -26478.0571249371
 -445452.236968792 -663599.546439081 -34755.5253930264
 -434647.036831420 -670241.759178980 -43103.8006019562
 -416028.358297111 -681391.635146597 -51242.9960566061
 -388000.027100546 -697198.222305977 -58057.0218264900
 -354204.409309022 -714663.672431955 -61604.1535297582
 0.000000000000000 -0.000000000000000 0.000000000000000
 -0.000000000000000 0.000000000000000 0.000000000000000
 -0.000000000000000 0.000000000000000 -0.000000000000000
 -0.000000000000000 -0.000000000000000 0.000000000000000
 -318174.830739212 -733899.948489472 12475.6839982404
 -352857.915096552 -717841.900911828 13939.0476363283
 -383074.934706612 -702192.480968808 13390.8203780175
 -407689.741616466 -688231.431243224 11250.4057528226
 -428302.628809511 -675634.458911450 8656.56319188420
 -446193.795170301 -663988.755721912 5479.91116628306
 -462385.743441254 -652837.860246874 1467.13685839853
 -476540.000594054 -642568.488519238 -3919.87192667699
 -487165.171855169 -634471.030119411 -10798.4846407887
 -493065.028734788 -629710.073754558 -18764.3398709175
 -493985.788616640 -628673.135270165 -27351.9585108197
 -489796.272577308 -631482.586154265 -36460.3175150280
 -479034.385221977 -639086.609681878 -45764.2120037715
 -461723.086574576 -650989.249842973 -54998.0719019283
 -434100.406454203 -669089.821953182 -62254.6968103987
 -406221.148611495 -686026.460038216 -65970.2550259799
 -0.000000000000000 -0.000000000000000 -0.000000000000000
 0.000000000000000 0.000000000000000 0.000000000000000
 0.000000000000000 -0.000000000000000 -0.000000000000000
 -0.000000000000000 0.000000000000000 0.000000000000000
 0.000000000000000 0.000000000000000 -0.000000000000000
 -387543.393428065 -699709.697714788 14712.4822562201
 -425793.258242724 -677112.932661899 14770.8380617741
 -450773.456692662 -660812.344204409 11416.5007083090
 -471731.338303483 -646060.992722650 8645.12259189044
 -488234.748933957 -633717.705100932 5357.25442772748
 -504140.198459516 -621160.199780885 1632.94377467562
 -518678.326445946 -609063.673398011 -3772.98584085808
 -528923.411045475 -600097.260106575 -11104.2181445924
 -533350.339883002 -595944.995312695 -19671.7439094063
 -532797.518818243 -596068.594666152 -28792.9573653544
 -528687.006867515 -599151.245963424 -38830.8283448109
 -515877.609335339 -609496.452160171 -48829.9804486968
 -501342.908984687 -620604.638445521 -59204.4791436894
 -473005.765311727 -641953.827383305 -64504.4920125155
 -0.000000000000000 0.000000000000000 0.000000000000000
 0.000000000000000 0.000000000000000 0.000000000000000
 0.000000000000000 -0.000000000000000 -0.000000000000000
 -0.000000000000000 0.000000000000000 0.000000000000000
 -0.000000000000000 0.000000000000000 0.000000000000000
 -0.000000000000000 0.000000000000000 -0.000000000000000
 -0.000000000000000 -0.000000000000000 0.000000000000000
 -0.000000000000000 0.000000000000000 0.000000000000000
 -479698.745991001 -640149.502157264 9885.74642945028
 -507935.513370539 -618000.820140980 8746.45997428402
 -522278.296859048 -605969.160606421 5172.71920393213
 -540380.016527621 -589902.804173915 2029.62197489077
 -556788.994502916 -574432.014854521 -3725.03833637752
 -566406.058898278 -564835.221183861 -12056.0919663176
 -567502.734032192 -563448.936492408 -21585.7089659342
 -562402.370944012 -568111.130831733 -30875.8187202212
 -560268.941094061 -569527.470509531 -41679.4191460852
 -539976.427461567 -588222.235550995 -49194.0991302095
 0.000000000000000 0.000000000000000 -0.000000000000000
 -0.000000000000000 0.000000000000000 -0.000000000000000
 -0.000000000000000 0.000000000000000 0.000000000000000
 0.000000000000000 -0.000000000000000 0.000000000000000
 0.000000000000000 0.000000000000000 -0.000000000000000
 -0.000000000000000 -0.000000000000000 0.000000000000000
 -0.000000000000000 0.000000000000000 -0.000000000000000
 -0.000000000000000 -0.000000000000000 -0.000000000000000
 -0.000000000000000 0.000000000000000 -0.000000000000000
 0.000000000000000 -0.000000000000000 0.000000000000000
 0.000000000000000 -0.000000000000000 0.000000000000000
 0.000000000000000 -0.000000000000000 0.000000000000000
 -542153.068670099 -588264.753903358 3824.84595988164
 -568980.820128362 -562365.104957294 2512.97680641124
 -588132.964971124 -542295.735912877 -3866.56501117173
 -596745.432358156 -532646.061810897 -13530.0331492288
 -593130.400223322 -536297.890352191 -24101.8906874877
 -575966.877126174 -554338.672573106 -31157.5439245395
 0.000000000000000 0.000000000000000 0.000000000000000
 -0.000000000000000 -0.000000000000000 -0.000000000000000
 0.000000000000000 0.000000000000000 -0.000000000000000
 -0.000000000000000 0.000000000000000 0.000000000000000
 0.000000000000000 0.000000000000000 -0.000000000000000
 -0.000000000000000 0.000000000000000 0.000000000000000
 -0.000000000000000 0.000000000000000 0.000000000000000
# End: Data Text
# End: Segment
