# OOMMF OVF 2.0
#
# Segment count: 1
#
# Begin: Segment
# Begin: Header
#
# Title: Oxs_TimeDriver::Magnetization
# Desc: Oxs vector field output
# Desc:  MIF source file: C:/Users/Victor H. González/Documents/GitHub/Intro-to-magnetism-in-python/domain_wall_conversion_thin_film/drive-3/domain_wall_conversion_thin_film.mif
# Desc:  Iteration: 46, State id: 236
# Desc:  Stage: 20, Stage iteration: 1
# Desc:  Stage simulation time: 2e-12 s
# Desc:  Total simulation time: 4.2e-11 s
# meshunit: m
# meshtype: rectangular
# xbase: -4.7499999999999995e-08
# ybase: -4.7499999999999995e-08
# zbase: 0
# xnodes: 20
# ynodes: 20
# znodes: 1
# xstepsize: 5.0000000000000001e-09
# ystepsize: 5.0000000000000001e-09
# zstepsize: 5.0000000000000001e-09
# xmin: -4.9999999999999998e-08
# ymin: -4.9999999999999998e-08
# zmin: -2.5000000000000001e-09
# xmax: 4.9999999999999998e-08
# ymax: 4.9999999999999998e-08
# zmax: 2.5000000000000001e-09
# valuedim: 3
# valuelabels: Magnetization_x Magnetization_y Magnetization_z
# valueunits: A/m A/m A/m
#
# End: Header
#
# Begin: Data Text
 0.000000000000000 -0.000000000000000 -0.000000000000000
 -0.000000000000000 0.000000000000000 0.000000000000000
 0.000000000000000 0.000000000000000 -0.000000000000000
 0.000000000000000 0.000000000000000 0.000000000000000
 0.000000000000000 0.000000000000000 0.000000000000000
 0.000000000000000 -0.000000000000000 0.000000000000000
 -0.000000000000000 -0.000000000000000 0.000000000000000
 658328.482706573 -454218.768869839 16997.6134686363
 691235.463816677 -402555.456412465 11943.1182986009
 722853.606901245 -342614.752644509 9889.09804800662
 748879.424518777 -281187.337700404 10643.7140784808
 768182.159167601 -222934.773013834 14009.1869097294
 778887.019785691 -181500.444623246 19814.1114089906
 -0.000000000000000 -0.000000000000000 -0.000000000000000
 -0.000000000000000 0.000000000000000 -0.000000000000000
 -0.000000000000000 -0.000000000000000 -0.000000000000000
 0.000000000000000 -0.000000000000000 -0.000000000000000
 0.000000000000000 0.000000000000000 0.000000000000000
 0.000000000000000 0.000000000000000 -0.000000000000000
 0.000000000000000 0.000000000000000 0.000000000000000
 0.000000000000000 0.000000000000000 -0.000000000000000
 -0.000000000000000 0.000000000000000 -0.000000000000000
 0.000000000000000 -0.000000000000000 -0.000000000000000
 -0.000000000000000 -0.000000000000000 0.000000000000000
 0.000000000000000 -0.000000000000000 -0.000000000000000
 552509.019057363 -578419.537003092 12830.5523418975
 590876.037333587 -539244.962206518 8965.44699656825
 628058.059958576 -495413.634169107 10411.7433904640
 666971.025294806 -441668.727316682 8853.62793764627
 703699.731121441 -380441.522440770 8422.37630133621
 736761.413682238 -311638.284980065 8012.40560846533
 764212.070655898 -236451.853165724 8392.38930942366
 785591.124512358 -150944.379675249 7898.05874018812
 798585.313574965 -47188.7110191736 5892.57963226086
 799717.659175384 18464.7857102033 10522.2284579292
 -0.000000000000000 -0.000000000000000 -0.000000000000000
 0.000000000000000 -0.000000000000000 0.000000000000000
 0.000000000000000 -0.000000000000000 0.000000000000000
 0.000000000000000 0.000000000000000 -0.000000000000000
 -0.000000000000000 -0.000000000000000 0.000000000000000
 0.000000000000000 -0.000000000000000 0.000000000000000
 -0.000000000000000 -0.000000000000000 -0.000000000000000
 -0.000000000000000 -0.000000000000000 -0.000000000000000
 432763.339515670 -672826.251291825 4552.75123794895
 476706.721448248 -642452.106822685 2447.88993949221
 515572.109143435 -611689.612336392 4606.34704999759
 553218.449646116 -577836.482024594 7372.04263342710
 592863.700277662 -537084.584304653 7265.13560620351
 633423.221123115 -488565.416973449 8880.10583140043
 676774.197889960 -426523.751472681 7360.33287780263
 717770.425663867 -353209.326387783 6984.82605368150
 754989.466999827 -264506.723563707 5205.56518639126
 783559.117173331 -161312.047712419 3678.74399433638
 798685.644171307 -45833.8385244405 707.842340547509
 797327.300628806 65325.9626912041 -1301.64144403290
 780232.334717358 176642.535004931 -5909.20371389756
 759777.348978863 250455.543030532 -3225.04944656130
 0.000000000000000 0.000000000000000 -0.000000000000000
 0.000000000000000 -0.000000000000000 0.000000000000000
 -0.000000000000000 -0.000000000000000 -0.000000000000000
 -0.000000000000000 -0.000000000000000 -0.000000000000000
 0.000000000000000 0.000000000000000 0.000000000000000
 350480.323831392 -719115.087368459 6085.53416683914
 390834.780931992 -698024.218270744 3219.42873159865
 428763.083413732 -675397.566923353 587.278097925832
 466717.306686151 -649731.323759644 4915.54322187323
 505238.866861984 -620249.199586931 4961.63519305946
 544987.533586296 -585565.348911478 10090.1134633684
 591026.846837007 -539097.210299723 7839.90847911825
 639410.597257115 -480707.408570240 8629.91662675917
 691871.490190556 -401589.185025838 6321.98796127331
 740060.149211219 -303761.139474241 6336.06303469705
 778903.929585298 -182465.976393352 3851.74446221005
 798649.500037559 -46460.9312238766 598.297222922248
 794848.079079189 90520.6248366551 -4748.43798575661
 770488.150479905 215041.496727544 -10254.9819713968
 734091.192376881 317740.328697885 -12296.5358393631
 693213.836867371 399132.738799914 -12150.4400618852
 0.000000000000000 0.000000000000000 -0.000000000000000
 0.000000000000000 0.000000000000000 -0.000000000000000
 0.000000000000000 0.000000000000000 -0.000000000000000
 -0.000000000000000 0.000000000000000 0.000000000000000
 311966.376543618 -736640.841623604 6103.30716201090
 339918.605249019 -724188.498451749 2522.00629731993
 374299.160098349 -707023.652176351 4206.42519060635
 408492.961025665 -687839.116158291 3294.09700322105
 445466.886885200 -664408.065465521 11007.9622625477
 487167.219197246 -634508.081040397 8221.65640574067
 533938.488036006 -595632.413861702 11476.8702661831
 592656.617601961 -537308.535812644 7594.13954806015
 654449.457215151 -459966.460237060 11258.9256939744
 718637.642403776 -351294.247201275 12340.6160150589
 771344.225081096 -211749.787620474 13788.1788763761
 798817.166385223 -42456.5953232797 9411.28056313162
 790025.993596206 125930.861012261 -589.649929169363
 752147.595461623 272307.094222712 -11083.3694011510
 699159.973851870 388407.157105119 -17754.1902933423
 645684.482176962 471992.482085828 -17738.2730367879
 -0.000000000000000 -0.000000000000000 0.000000000000000
 0.000000000000000 -0.000000000000000 -0.000000000000000
 -0.000000000000000 -0.000000000000000 -0.000000000000000
 233371.690517209 -765167.060110419 7551.43609644401
 264076.356553179 -755140.310333098 5175.86897361587
 288567.686100870 -746122.581786029 5457.42497355318
 312606.929017383 -736385.109721091 3725.33372685878
 344308.572390437 -722031.212285549 11069.5737912552
 375979.583911631 -706093.848867127 8416.00104825244
 414493.967082174 -684086.738509343 14835.2771504633
 465902.037394217 -650281.149118600 8349.76963217764
 526596.799502097 -602041.912637652 15535.3204584577
 602001.174100488 -526475.840600972 20439.5607862295
 681277.990181855 -418038.675132772 33225.9866220569
 758252.382766817 -251730.852354568 41047.5577992944
 798293.650413954 -33054.8251798802 40430.5112642895
 778291.661222727 184071.841319944 19484.5401344782
 717602.213949496 353594.650558022 -4229.14075569279
 643880.481011400 474337.335243420 -20543.0904856203
 570898.608917963 559658.993352699 -29267.5502045964
 497650.907997315 625363.507053776 -35553.5907448138
 -0.000000000000000 0.000000000000000 0.000000000000000
 -0.000000000000000 0.000000000000000 0.000000000000000
 193358.119144668 -776260.252192857 5714.77263926404
 211701.695756433 -771462.835995029 5242.58451132214
 225882.084485541 -767432.034075545 5035.57177869709
 249897.382177621 -759905.166412627 9769.15759771747
 268788.222641233 -753448.400569978 8270.37169109038
 296990.576785018 -742635.808320179 16989.8058122076
 329997.550830188 -728708.195208702 9272.68471122836
 375422.747379901 -706210.261209940 18022.9773210505
 438566.067465018 -668724.776932231 21609.6549071846
 513004.282304073 -612203.301851089 45096.8240600970
 613233.812595799 -508901.518611616 70452.3629412868
 725327.118439780 -320107.047595193 106920.761948902
 790317.545806811 -11012.4839453512 123599.765320378
 745775.608967549 279884.680847942 74049.3517576488
 649481.582374000 466691.593268750 19303.6506713286
 553847.448285033 577105.162325098 -14235.0147832845
 474792.841766094 643088.629102978 -31761.1795456151
 412197.591517277 684634.500769086 -36996.5661112012
 -0.000000000000000 -0.000000000000000 -0.000000000000000
 99993.1457372061 -793708.777022986 -5267.64484881529
 136471.136020386 -788273.763068745 -321.699775935266
 147603.795155646 -786254.992122704 4025.79405555661
 164390.329201474 -782898.678490327 6743.80331343095
 172219.490763789 -781206.689432221 7520.33160239577
 191870.343369024 -776488.820687911 15839.2765664613
 204188.470867890 -773435.896675284 10197.1613075525
 229511.862757708 -766124.632433207 19425.5613193470
 264008.019278707 -754999.267822136 16609.3752011651
 307692.131186855 -737306.696686559 41284.2273373911
 373165.905546195 -704132.224317022 70320.8192234048
 472592.333244331 -631191.944594002 135104.461948230
 628256.122742489 -430476.015636881 244917.627372900
 727644.518734413 33082.2256571227 330815.689926183
 640518.401637502 437384.393052223 196038.439797092
 506167.485916527 615746.919151700 68192.4318097804
 406099.514746568 689262.738559824 -247.700652181546
 335248.013297260 725774.277974950 -29333.7179740341
 282325.615987314 747040.620918098 -47144.0055116980
 212211.157770698 768845.168198185 -61996.2245295947
 61787.1469530251 -797608.643074211 -1673.60829372704
 74513.3158708742 -796519.731575777 2020.63563761124
 86653.1873135750 -795285.864975275 3408.53325155959
 87864.3807240598 -795133.632100732 6508.27951727372
 100847.538997962 -793533.339258846 11602.2998909116
 98335.5658172934 -793870.047332758 10023.1952628641
 108676.362944941 -792346.861674254 19388.1131629555
 113246.603783996 -791851.494508784 12100.3047728326
 126009.711299936 -789431.603006618 30319.9081876684
 141251.423689955 -786104.753064768 45687.5531686748
 157922.847550237 -777957.458852052 99209.7093942010
 206316.574418998 -744784.584455793 206710.894432346
 305743.470863175 -576215.683892565 463137.577465662
 367538.388573491 102645.396518271 703121.223899839
 300974.385394948 635568.903947042 381400.822851352
 221429.263539836 757901.433247646 128664.286922865
 174901.481564653 780392.591915744 19921.7024753143
 149842.328932789 785428.217660175 -25491.0055344790
 128973.958950366 788435.202764729 -41661.1204123234
 105941.956361715 791177.210346859 -53055.8546252514
 16912.3772548332 -799815.125095609 3120.44289900015
 20462.8582260946 -799733.352605344 2799.31488685199
 17247.6582495291 -799790.077098545 6192.80708659827
 22766.1573785350 -799642.819830148 7284.41983320318
 12382.6389867298 -799856.223055353 8757.43634574375
 15007.5918594130 -799691.459455570 16381.1434399881
 -518.711462125932 -799929.240417533 10627.3827186398
 -6580.56188644818 -799640.919143404 23045.5339871195
 -22567.6629235357 -799363.682660665 22547.8032932190
 -50431.3447992745 -796617.804901533 53448.5956372963
 -96355.2029334460 -788484.237334430 94911.9715462522
 -180789.516190474 -751081.502921860 207826.193739515
 -328357.868412432 -576652.995555614 446824.834771280
 -477758.320671155 82745.0461872496 636317.722809092
 -334681.130188906 629367.132408609 363160.506855083
 -191716.912264572 765869.351615420 129184.990644869
 -108959.375643134 792265.849938435 21039.9021097801
 -64102.0318225172 797202.953921720 -18930.9211268178
 -37240.7376260946 798192.253243838 -38758.9257151059
 -25435.4747562730 798376.671389213 -44133.0624974557
 -27921.8694163096 -799491.829308735 5760.56220105043
 -36773.4196833350 -799122.591164139 7127.40457011791
 -41265.3961019682 -798915.251756930 5620.28421966459
 -56290.1117730486 -797978.868622208 7819.75376845732
 -59031.9462423802 -797737.916444098 11377.4333777933
 -82932.2960412424 -795632.779789953 9524.38958880808
 -96709.5775099834 -793900.039368041 19234.9969915314
 -128490.373700815 -789519.234290584 12231.2121817475
 -164336.781354939 -782386.126279273 29417.2007439863
 -220886.492364866 -768023.429461332 36731.0398600529
 -311817.436149388 -733111.746310650 72918.1317271084
 -443659.575532496 -653136.527817256 128758.910639789
 -626384.765751756 -441776.225342330 229076.170642869
 -749486.025656746 12196.6805971534 279503.020247844
 -647392.524071907 434512.447457272 179114.077560914
 -479629.480152683 636538.962189796 69092.0500694848
 -349603.090280060 719510.093872408 9105.16789253658
 -257089.819591944 757244.268482809 -22044.1037948467
 -195454.721245887 775085.512592116 -32247.4822662050
 -156851.542262920 783467.694822667 -39698.4238856000
 -72639.6720266304 -796631.654356696 10073.9924943885
 -90117.2338851385 -794874.323551769 7327.61318645760
 -109648.556822814 -792409.545719093 8019.09221383818
 -119246.182051912 -791026.227489995 7606.27957602856
 -144810.102548265 -786746.241632643 7770.80928037990
 -160428.123683955 -783612.510934756 14637.2756267052
 -197714.659891793 -775128.730743855 9184.98989076789
 -232847.716992997 -765083.942569592 20700.2780976063
 -286085.082732731 -746934.664970443 15618.3130746240
 -358242.270355980 -714553.182967778 32805.8598547663
 -453920.941418621 -657471.023302400 41080.8040248536
 -580855.877025676 -545919.556386113 67663.0481128436
 -715008.137251443 -345900.410239306 95479.1592993058
 -792863.362352549 -29682.0406950562 102404.419334262
 -745291.684765768 282956.714701405 66901.4366392124
 -629577.442607058 492978.192909874 24591.5651325850
 -508648.381339470 617445.140428959 -6190.53482335029
 -409074.396304013 687200.502979447 -20337.3300436076
 -330084.502256094 728025.956614048 -31975.4259791552
 -272982.496170938 751176.005112243 -34859.2330365461
 -110721.996025814 -792187.995656911 13372.3271402633
 -150830.573285359 -785594.031996757 9599.74236574203
 -167965.039901662 -782141.823296931 6474.07295186436
 -192860.008783567 -776377.438508115 6564.29642700408
 -210016.978047097 -771880.047914465 9698.48253741238
 -245957.975064639 -761218.567256137 7139.14326905913
 -277808.189246468 -750042.861753969 16072.1970967210
 -327322.007432252 -729916.439388561 9071.65700668088
 -384417.281391848 -701288.395501564 20443.5833977856
 -456814.592265621 -656532.943721615 16879.6357017805
 -548963.881061720 -581254.497907554 27961.8660301955
 -649360.962360954 -466233.334050698 30932.4874787956
 -745849.386748075 -286805.082808920 38099.0388656808
 -797536.161662646 -52521.4705986330 34315.6810594170
 -777338.970975716 188015.372333458 19858.0957980916
 -702591.387636101 382572.587257548 1886.13325209548
 -608991.317193993 518657.565789962 -11131.2636818745
 -516539.925331861 610445.181787027 -23306.3418656616
 -438249.142167997 668647.941071510 -29113.9191770173
 -362205.403997119 712515.730502739 -33594.3313883758
 0.000000000000000 0.000000000000000 -0.000000000000000
 -206129.287692101 -772976.935368483 4168.23030728339
 -229359.179974965 -766397.888952096 5351.85677899669
 -249447.913320592 -760088.120775593 6464.30165060860
 -282187.118060630 -748558.274522065 5562.37765571061
 -311228.133065822 -736887.706673434 11556.6838639070
 -355933.188692256 -716426.880854221 6639.99825714786
 -402974.605448026 -690923.262306291 15378.9781207830
 -461721.969035920 -653246.469510169 9048.39113279116
 -531843.573695101 -597365.656629081 17224.5580300370
 -608529.994478799 -519137.443504565 13695.2755057639
 -690865.897549842 -402996.258860757 17272.1436678946
 -759434.519722884 -251090.262224598 14590.7665752633
 -797451.098920683 -62917.3842526154 10637.0855502455
 -789312.968270328 130292.146405778 2999.11741357094
 -741125.600990807 301166.135183868 -5639.37713108686
 -669395.394602803 437809.576686503 -15250.5818296711
 -592971.657278009 536479.675043230 -23961.8849526034
 -525836.623551871 601818.703729782 -36195.2092489062
 0.000000000000000 -0.000000000000000 0.000000000000000
 -0.000000000000000 -0.000000000000000 -0.000000000000000
 -244542.038846257 -761699.876605458 3534.00850956309
 -278272.709028246 -750026.978078116 4881.75840152581
 -308328.575326538 -738178.427159897 5108.74865786027
 -337488.266668345 -725280.500268284 8358.57594227325
 -377795.019261839 -705153.215678708 5464.96467732850
 -418142.779540973 -681923.302014297 11714.3539159579
 -468081.891364322 -648738.205481586 6171.20128754173
 -524075.783965473 -604304.558353283 12671.7565640546
 -585269.302652636 -545341.579752018 7899.66873171457
 -652735.020336680 -462387.749466787 11600.1021165612
 -715764.503273187 -357236.776097279 7941.13705402036
 -768667.006891993 -221595.102888385 6829.56013152851
 -797128.980266061 -67668.6354652542 2518.84780422878
 -794499.433548498 93615.9283976895 -2589.98867831595
 -761946.400190089 243635.445900327 -8913.62655220951
 -708801.671052685 370560.328870949 -16888.8655621097
 -646156.751042317 470850.329725609 -27953.8920317475
 -585011.042097855 544210.720802892 -39959.6294624794
 -0.000000000000000 0.000000000000000 0.000000000000000
 0.000000000000000 -0.000000000000000 -0.000000000000000
 0.000000000000000 0.000000000000000 -0.000000000000000
 -324116.632445884 -731393.241131536 3512.17867534862
 -355149.126351506 -716815.831093139 6645.47560489335
 -394151.980444654 -696138.859292919 5908.03638360447
 -431903.450954188 -673332.220976467 9117.52426709286
 -475562.428430503 -643285.067118782 4969.81762926987
 -522060.712443116 -606104.353033953 9493.45862579886
 -572927.327374637 -558326.022197396 5131.32386303517
 -628578.425434689 -494788.586005225 8568.44425766285
 -683059.063250309 -416417.180335934 5200.77231578494
 -734883.858421175 -316092.226884427 5605.24176556139
 -774779.346426770 -199278.646643193 2232.78806980717
 -797248.106437536 -66295.1799301036 -637.102659219672
 -796935.035586090 69765.2897387743 -5230.04809377252
 -774606.027843078 199620.553537893 -11710.5181095483
 -735808.964675064 313241.187843572 -21566.7740322690
 -692360.425802737 399254.748810091 -35109.6330776019
 0.000000000000000 -0.000000000000000 0.000000000000000
 -0.000000000000000 0.000000000000000 0.000000000000000
 -0.000000000000000 0.000000000000000 -0.000000000000000
 -0.000000000000000 -0.000000000000000 0.000000000000000
 -360481.544075231 -714167.027462216 4302.70460524616
 -402839.449323344 -691141.375628464 6631.51289373569
 -443109.877614892 -666019.440940206 8469.98523087877
 -483942.602621018 -637002.684518716 5209.34586542080
 -524226.938458263 -604265.373562136 7033.86867155018
 -567461.090295599 -563893.950749139 3394.59998474960
 -614177.725106201 -512593.954214741 5758.47947528839
 -661196.763085111 -450343.662436729 3070.20990264471
 -707766.454548162 -372896.062615265 3895.16397063321
 -748317.838339081 -282875.889824621 1282.09962703226
 -780035.620651920 -177607.505519721 -67.0614340332958
 -797492.176592473 -63184.2661174533 -3738.55439957958
 -798133.858715638 53958.5665008473 -8415.26427748720
 -782457.967629955 165901.250502713 -15372.1818242294
 -755343.853717660 262167.007114471 -26909.5342136360
 -724133.903698836 337579.886468895 -40864.5294299826
 -0.000000000000000 -0.000000000000000 -0.000000000000000
 0.000000000000000 0.000000000000000 0.000000000000000
 0.000000000000000 -0.000000000000000 -0.000000000000000
 -0.000000000000000 0.000000000000000 0.000000000000000
 0.000000000000000 0.000000000000000 -0.000000000000000
 -442952.783239716 -666147.062350391 6397.11983104905
 -488305.189715669 -633642.400202501 7439.78241332322
 -527777.750898784 -601185.156160902 5201.31406601536
 -566439.555724708 -564924.425738510 2573.50236251288
 -606119.851722800 -522120.438438849 2995.51530696136
 -647163.005889930 -470296.654165574 1049.23218421730
 -688698.573417333 -407052.422562625 1612.53180707892
 -726405.978209802 -335162.904505439 -426.924512560794
 -758970.156386307 -252907.232416097 -1494.49207940796
 -783729.883575336 -160462.056374023 -4404.32233263268
 -797799.493676552 -58809.4603230190 -7577.28618652391
 -798905.089591130 39553.6114974335 -13644.3996899750
 -787396.929275622 140032.867613406 -19921.6403764199
 -772350.866911342 205818.095518573 -33362.4030670227
 -0.000000000000000 0.000000000000000 0.000000000000000
 0.000000000000000 0.000000000000000 0.000000000000000
 0.000000000000000 -0.000000000000000 -0.000000000000000
 -0.000000000000000 0.000000000000000 0.000000000000000
 -0.000000000000000 0.000000000000000 0.000000000000000
 -0.000000000000000 0.000000000000000 -0.000000000000000
 -0.000000000000000 -0.000000000000000 0.000000000000000
 -0.000000000000000 0.000000000000000 0.000000000000000
 -563248.887721848 -568109.937093129 -1337.85505255206
 -600696.006322869 -528359.133170094 966.635144292428
 -637095.353153646 -483845.057741935 -1863.08581010485
 -675067.051835594 -429282.341834081 -1070.75461579687
 -710558.176421195 -367563.488770356 -2039.52051986492
 -741279.807447825 -300818.931767946 -3495.33404808829
 -766104.163487675 -230300.908739127 -6775.11038897007
 -785320.464864624 -152225.591807426 -9956.73961146543
 -797757.990764925 -58289.5829188193 -13583.5449665573
 -799658.046446158 -1577.50315819452 -23334.9574180064
 0.000000000000000 0.000000000000000 -0.000000000000000
 -0.000000000000000 0.000000000000000 -0.000000000000000
 -0.000000000000000 0.000000000000000 0.000000000000000
 0.000000000000000 -0.000000000000000 0.000000000000000
 0.000000000000000 0.000000000000000 -0.000000000000000
 -0.000000000000000 -0.000000000000000 0.000000000000000
 -0.000000000000000 0.000000000000000 -0.000000000000000
 -0.000000000000000 -0.000000000000000 -0.000000000000000
 -0.000000000000000 0.000000000000000 -0.000000000000000
 0.000000000000000 -0.000000000000000 0.000000000000000
 0.000000000000000 -0.000000000000000 0.000000000000000
 0.000000000000000 -0.000000000000000 0.000000000000000
 -665094.918814585 -444486.737131511 -8960.43978849624
 -697052.085128563 -392546.946885448 -5028.43005688931
 -727314.761228100 -333156.948497833 -4436.86458262971
 -751704.461504234 -273657.613284884 -7205.08472199773
 -769268.214967343 -219231.282675694 -12808.5181550380
 -778719.490930274 -182142.298735279 -20497.2548582132
 0.000000000000000 0.000000000000000 0.000000000000000
 -0.000000000000000 -0.000000000000000 -0.000000000000000
 0.000000000000000 0.000000000000000 -0.000000000000000
 -0.000000000000000 0.000000000000000 0.000000000000000
 0.000000000000000 0.000000000000000 -0.000000000000000
 -0.000000000000000 0.000000000000000 0.000000000000000
 -0.000000000000000 0.000000000000000 0.000000000000000
# End: Data Text
# End: Segment
