# OOMMF OVF 2.0
#
# Segment count: 1
#
# Begin: Segment
# Begin: Header
#
# Title: Oxs_MinDriver::Magnetization
# Desc: Oxs vector field output
# Desc:  MIF source file: C:/Users/Victor H. González/Documents/GitHub/Intro-to-magnetism-in-python/domain_wall_conversion_thin_film/drive-6/domain_wall_conversion_thin_film.mif
# Desc:  Iteration: 132, State id: 292
# Desc:  Stage: 0, Stage iteration: 132
# Desc:  Stage simulation time: -1 s
# Desc:  Total simulation time: -2 s
# meshunit: m
# meshtype: rectangular
# xbase: 1.0000000000000001e-09
# ybase: 1.0000000000000001e-09
# zbase: 1.0000000000000001e-09
# xnodes: 75
# ynodes: 25
# znodes: 1
# xstepsize: 2.0000000000000001e-09
# ystepsize: 2.0000000000000001e-09
# zstepsize: 2.0000000000000001e-09
# xmin: 0
# ymin: 0
# zmin: 0
# xmax: 1.5000000000000002e-07
# ymax: 5.0000000000000004e-08
# zmax: 2.0000000000000001e-09
# valuedim: 3
# valuelabels: Magnetization_x Magnetization_y Magnetization_z
# valueunits: A/m A/m A/m
#
# End: Header
#
# Begin: Data Text
 0.000000000000000 -0.000000000000000 -0.000000000000000
 -0.000000000000000 0.000000000000000 0.000000000000000
 0.000000000000000 0.000000000000000 -0.000000000000000
 0.000000000000000 0.000000000000000 0.000000000000000
 0.000000000000000 0.000000000000000 0.000000000000000
 0.000000000000000 -0.000000000000000 0.000000000000000
 -0.000000000000000 -0.000000000000000 0.000000000000000
 -0.000000000000000 -0.000000000000000 -0.000000000000000
 -0.000000000000000 0.000000000000000 -0.000000000000000
 -0.000000000000000 -0.000000000000000 -0.000000000000000
 0.000000000000000 -0.000000000000000 -0.000000000000000
 0.000000000000000 0.000000000000000 0.000000000000000
 0.000000000000000 0.000000000000000 -0.000000000000000
 0.000000000000000 0.000000000000000 0.000000000000000
 0.000000000000000 0.000000000000000 -0.000000000000000
 -0.000000000000000 0.000000000000000 -0.000000000000000
 0.000000000000000 -0.000000000000000 -0.000000000000000
 -0.000000000000000 -0.000000000000000 0.000000000000000
 0.000000000000000 -0.000000000000000 -0.000000000000000
 -0.000000000000000 -0.000000000000000 -0.000000000000000
 0.000000000000000 -0.000000000000000 0.000000000000000
 0.000000000000000 -0.000000000000000 0.000000000000000
 0.000000000000000 0.000000000000000 -0.000000000000000
 -0.000000000000000 -0.000000000000000 0.000000000000000
 0.000000000000000 -0.000000000000000 0.000000000000000
 235877.406236270 254540.212863949 464726.940538662
 166133.918291094 253936.647225521 494283.016488640
 114259.907715847 254879.794527673 508311.876538703
 77471.2315889250 256585.767339734 514355.861514939
 52046.4896984499 258591.811416438 516547.614434947
 34739.0863772037 260604.018153973 516990.078821326
 23070.4207115371 262451.626867345 516707.750322052
 15256.1695972949 264053.145707005 516181.349461073
 10049.9577727170 265386.014850681 515625.117183445
 6596.05779571561 266462.325812123 515125.539013889
 4313.29273617815 267311.564626467 514709.552002605
 2809.87398874849 267969.520027657 514377.722052885
 1823.14763414516 268471.836909160 514120.169726228
 1177.80448556386 268850.721246092 513924.024017218
 757.276141729054 269133.611532865 513776.727456706
 484.310702602971 269342.976011496 513667.330785611
 307.870792257474 269496.689915535 513586.837195177
 194.338771626785 269608.666057011 513528.119404771
 121.631216305119 269689.534303484 513485.676813888
 75.2743610695539 269747.279763476 513455.352873038
 45.7898627641327 269787.792734900 513434.070543161
 26.9579310940490 269815.320487362 513419.606271101
 14.6533533978957 269832.815292442 513410.412415481
 6.06283993733111 269842.188724908 513405.486090082
 -0.862825474809890 269844.485246792 513404.279083404
 -7.81319583172672 269839.978807848 513406.647576688
 -16.4509723624907 269828.199218221 513412.838402019
 -28.7361770034110 269807.892477455 513423.509717958
 -47.2940009160521 269776.907333410 513439.790075621
 -75.8917717766573 269732.006184991 513463.376571162
 -120.102999574953 269668.590289936 513496.676704249
 -188.259525921969 269580.326197183 513542.999451625
 -292.850109713213 269458.661716369 513606.798888836
 -452.569887907150 269292.227001413 513693.966926920
 -695.327056750785 269066.119703549 513812.163876995
 -1062.66027520759 268761.102989921 513971.147315470
 -1616.18592465806 268352.785307647 514183.012711121
 -2446.99244995527 267810.900501158 514462.179174241
 -3689.27642855413 267098.945832658 514824.768610171
 -5540.04635618784 266174.574519281 515286.719958753
 -8287.44882592648 264991.370646485 515859.371994786
 -12351.2305968705 263502.943188121 516540.072050505
 -18339.9537459632 261670.631537283 517293.076202916
 -27130.5542234808 259476.417248209 518011.507516542
 -39975.3980131157 256942.713367494 518442.291485796
 -58636.3628139299 254160.177225015 518038.976592401
 -85523.3975126960 251323.262223819 515676.610234615
 -123745.697344487 248772.469881658 509116.156311805
 -176790.857422141 247054.718625871 494073.839356666
 -247084.423593216 247103.621812510 462913.693580940
 -0.000000000000000 -0.000000000000000 -0.000000000000000
 -0.000000000000000 -0.000000000000000 -0.000000000000000
 0.000000000000000 0.000000000000000 -0.000000000000000
 0.000000000000000 -0.000000000000000 0.000000000000000
 -0.000000000000000 -0.000000000000000 -0.000000000000000
 -0.000000000000000 -0.000000000000000 -0.000000000000000
 0.000000000000000 0.000000000000000 0.000000000000000
 0.000000000000000 0.000000000000000 -0.000000000000000
 0.000000000000000 0.000000000000000 -0.000000000000000
 0.000000000000000 0.000000000000000 -0.000000000000000
 -0.000000000000000 0.000000000000000 0.000000000000000
 -0.000000000000000 -0.000000000000000 0.000000000000000
 0.000000000000000 -0.000000000000000 -0.000000000000000
 -0.000000000000000 -0.000000000000000 -0.000000000000000
 -0.000000000000000 0.000000000000000 0.000000000000000
 -0.000000000000000 0.000000000000000 0.000000000000000
 -0.000000000000000 -0.000000000000000 -0.000000000000000
 0.000000000000000 0.000000000000000 -0.000000000000000
 0.000000000000000 -0.000000000000000 0.000000000000000
 -0.000000000000000 -0.000000000000000 -0.000000000000000
 -0.000000000000000 0.000000000000000 0.000000000000000
 0.000000000000000 -0.000000000000000 -0.000000000000000
 0.000000000000000 0.000000000000000 -0.000000000000000
 0.000000000000000 -0.000000000000000 0.000000000000000
 -0.000000000000000 0.000000000000000 0.000000000000000
 234090.398469783 185170.701069695 497306.240469206
 162920.535712772 182972.500564998 525716.618607454
 111334.066379782 182353.655849181 539214.122461366
 75226.3193084693 182894.686591322 545243.555211762
 50454.9977941023 184088.532346550 547691.250118249
 33663.8872807278 185545.733177782 548488.398776738
 22369.2947871662 187016.690652069 548565.740880957
 14812.5452389485 188363.559681085 548360.974074390
 9777.31366987933 189524.887435202 548073.645763117
 6433.70493588700 190486.125735697 547789.780246950
 4220.25257544034 191258.535872518 547542.109726823
 2759.27202645049 191865.459585843 547339.046511207
 1797.78577278441 192334.060271043 547178.560641743
 1166.92757505155 192690.793109811 547054.747288374
 754.312958830297 192959.212219608 546960.851827211
 485.350571828185 193159.179887590 546890.570096044
 310.660277130753 193306.829833526 546838.525553846
 197.631308208327 193414.918302668 546800.356912684
 124.778921447556 193493.312592717 546772.642340597
 77.9698691736315 193549.495505970 546752.765617225
 47.9110421135776 193589.032846024 546738.771321619
 28.4723723891424 193615.958278988 546729.238187453
 15.5629241118123 193633.091434909 546723.170955060
 6.36931446870438 193642.259466546 546719.924008740
 -1.17637012810854 193644.459382224 546719.144853354
 -8.79718116550169 193639.942477857 546720.744621769
 -18.1966306205018 193628.237756957 546724.889877915
 -31.3828502974064 193608.110778738 546732.017039248
 -51.0361169770715 193577.452697104 546742.871195057
 -80.9787143759771 193533.101912148 546758.568206032
 -126.837882159519 193470.577577824 546780.686860696
 -196.987250212343 193383.729669132 546811.388227494
 -303.923465588893 193264.284760415 546853.567115158
 -466.285258499818 193101.288754625 546911.030113089
 -711.810811071470 192880.456333919 546988.686253919
 -1081.66273601523 192583.465132037 547092.715143844
 -1636.74378865048 192187.263402279 547230.643198746
 -2466.89329745599 191663.547912373 547411.178949700
 -3704.21540384121 190978.684473325 547643.516226642
 -5542.34836211222 190094.520795601 547935.539583010
 -8264.18439080318 188970.805887455 548289.830088613
 -12281.5265197218 187570.296850459 548695.314218899
 -18191.3570186807 185868.105125897 549110.300419440
 -26854.5791905330 183867.338794103 549428.460585429
 -39503.3860889101 181623.422874891 549410.970722936
 -57879.9211665895 179279.015681086 548551.683309941
 -84393.3093147219 177108.456312361 545811.656201626
 -122232.353859164 175560.421992539 539108.328538755
 -175236.574728729 175256.128554926 524382.906168081
 -247029.157769961 176804.312378058 494081.805307568
 -0.000000000000000 0.000000000000000 -0.000000000000000
 -0.000000000000000 -0.000000000000000 0.000000000000000
 -0.000000000000000 -0.000000000000000 -0.000000000000000
 0.000000000000000 0.000000000000000 0.000000000000000
 0.000000000000000 -0.000000000000000 -0.000000000000000
 -0.000000000000000 0.000000000000000 0.000000000000000
 0.000000000000000 0.000000000000000 -0.000000000000000
 -0.000000000000000 0.000000000000000 0.000000000000000
 0.000000000000000 0.000000000000000 0.000000000000000
 0.000000000000000 -0.000000000000000 -0.000000000000000
 -0.000000000000000 0.000000000000000 0.000000000000000
 -0.000000000000000 0.000000000000000 0.000000000000000
 -0.000000000000000 0.000000000000000 -0.000000000000000
 -0.000000000000000 -0.000000000000000 0.000000000000000
 -0.000000000000000 0.000000000000000 0.000000000000000
 0.000000000000000 0.000000000000000 -0.000000000000000
 -0.000000000000000 0.000000000000000 -0.000000000000000
 -0.000000000000000 0.000000000000000 0.000000000000000
 0.000000000000000 -0.000000000000000 0.000000000000000
 0.000000000000000 0.000000000000000 -0.000000000000000
 -0.000000000000000 -0.000000000000000 0.000000000000000
 -0.000000000000000 0.000000000000000 -0.000000000000000
 -0.000000000000000 -0.000000000000000 -0.000000000000000
 -0.000000000000000 0.000000000000000 -0.000000000000000
 0.000000000000000 -0.000000000000000 0.000000000000000
 231634.003934524 134394.161611511 514474.389591941
 159289.590825676 131845.723022869 541888.855370883
 107922.164823074 130329.554901494 554767.531006529
 72519.8742359727 129862.933213727 560603.680346398
 48494.7761898510 130145.108935627 563125.658536734
 32325.2625687667 130854.892458434 564120.620540990
 21494.4094569592 131745.588549939 564429.880728977
 14261.7254096434 132656.837072749 564445.539238458
 9442.91252122768 133498.327550309 564348.321468565
 6238.75209004409 134228.369772581 564219.658218813
 4112.32863288584 134835.555682187 564094.373023780
 2703.93696604267 135325.418037699 563985.567153811
 1773.07817870138 135711.640978254 563896.450331762
 1159.22449576590 136010.715634379 563825.985062051
 755.403989592895 136238.960739696 563771.562728540
 490.447618576785 136411.043622999 563730.242792435
 317.087355048785 136539.408138106 563699.289941814
 203.979533939083 136634.206296996 563676.371743521
 130.373482934313 136703.481419778 563659.596893788
 82.5430381591398 136753.448889665 563647.485050212
 51.3999306101136 136788.796243594 563638.911520732
 30.9050746758810 136812.963526261 563633.047342008
 16.9841436890451 136828.368890685 563629.308303120
 6.80216775742926 136836.590152021 563627.312636017
 -1.75835038566157 136838.479599506 563626.853953752
 -10.4881424030183 136834.236334405 563627.884030571
 -21.1750986402915 136823.416071735 563630.510499632
 -35.9302761675813 136804.891700703 563635.006290218
 -57.5562255552556 136776.757580875 563641.832437004
 -90.0228584173329 136736.168303964 563651.676280161
 -139.132139915186 136679.111966573 563665.504527532
 -213.460181626693 136600.107498542 563684.632632590
 -325.730572971188 136491.820756662 563710.809516835
 -494.823207179565 136344.600559699 563746.312669280
 -748.699547360995 136145.954567778 563794.039081486
 -1128.68563774735 135879.993728253 563857.564791979
 -1695.70716164648 135526.940459095 563941.107729361
 -2539.35279630817 135062.828974617 564049.274369491
 -3791.01798375155 134459.682923785 564186.336107746
 -5642.90311998050 133686.578296745 564354.548513332
 -8375.38564555555 132712.240992834 564550.541586799
 -12396.2954939534 131510.146638547 564757.835881127
 -18296.9061681791 130067.455667580 564931.571255170
 -26930.9628238737 128399.419290162 564967.532135545
 -39524.0708135515 126570.878291694 564639.407582215
 -57819.1554077867 124725.295053159 563471.868012798
 -84252.5399533007 123117.297796795 560485.183117835
 -122114.739158325 122131.732216435 553689.290546699
 -175527.005216588 122237.928593025 539117.945586105
 -248732.447011991 123746.416657066 509135.536147265
 0.000000000000000 -0.000000000000000 0.000000000000000
 0.000000000000000 -0.000000000000000 0.000000000000000
 0.000000000000000 0.000000000000000 0.000000000000000
 -0.000000000000000 -0.000000000000000 -0.000000000000000
 0.000000000000000 0.000000000000000 -0.000000000000000
 -0.000000000000000 0.000000000000000 0.000000000000000
 0.000000000000000 0.000000000000000 -0.000000000000000
 -0.000000000000000 0.000000000000000 0.000000000000000
 -0.000000000000000 0.000000000000000 0.000000000000000
 -0.000000000000000 0.000000000000000 0.000000000000000
 -0.000000000000000 -0.000000000000000 -0.000000000000000
 -0.000000000000000 0.000000000000000 0.000000000000000
 0.000000000000000 0.000000000000000 -0.000000000000000
 -0.000000000000000 0.000000000000000 0.000000000000000
 -0.000000000000000 0.000000000000000 0.000000000000000
 0.000000000000000 0.000000000000000 0.000000000000000
 0.000000000000000 -0.000000000000000 0.000000000000000
 0.000000000000000 0.000000000000000 -0.000000000000000
 0.000000000000000 0.000000000000000 -0.000000000000000
 -0.000000000000000 0.000000000000000 0.000000000000000
 0.000000000000000 0.000000000000000 -0.000000000000000
 0.000000000000000 -0.000000000000000 0.000000000000000
 0.000000000000000 -0.000000000000000 0.000000000000000
 -0.000000000000000 0.000000000000000 0.000000000000000
 0.000000000000000 0.000000000000000 -0.000000000000000
 226474.076836749 100066.045751893 524496.214484454
 153757.986493005 97140.5056535084 550746.950741443
 103153.755225098 94691.8914966499 562843.449342486
 68874.6415689229 93154.3899311331 568312.012353523
 45907.3159798632 92450.4438276269 570741.126760285
 30578.9118629351 92340.4842861428 571785.068982288
 20359.6736046723 92586.8808530995 572200.273667014
 13547.7251785971 93008.6114781473 572333.694039930
 9007.29783976459 93486.3238942430 572345.329176684
 5981.77358538447 93950.1541349487 572308.996017704
 3966.89652840337 94364.7046272328 572258.303786453
 2626.28175971046 94716.3632165209 572207.928277086
 1735.35761057930 95004.1036451670 572163.620675539
 1144.14115191381 95233.3863016521 572126.990339160
 752.469222024228 95412.4007049969 572097.812949656
 493.476338731047 95549.8978564862 572075.146725251
 322.554615738987 95654.0561950228 572057.862013939
 209.969001208259 95731.9797217949 572044.879333400
 135.912047287554 95789.5466459378 572035.264893067
 87.1876706243473 95831.4484962442 572028.256187945
 54.9903054192244 95861.3086078098 572023.256946835
 33.4090164453801 95881.8319870394 572019.818868758
 18.4111026901460 95894.9467513800 572017.621099719
 7.14537793431214 95901.9116902258 572016.453682150
 -2.55486175523918 95903.4046488458 572016.203415806
 -12.5567932992702 95899.5572463385 572016.848320295
 -24.7483414339402 95889.9644310621 572018.456091173
 -41.3664849205259 95873.6428979483 572021.190941639
 -65.3705429429215 95848.9478181388 572025.327174285
 -100.926458945325 95813.4422608633 572031.270208172
 -154.079986679145 95763.7074862178 572039.586556605
 -233.706031685446 95695.1011028534 572051.040560548
 -352.895974117840 95601.4512278471 572066.637715888
 -530.967308425719 95474.6984570816 572087.668131596
 -796.394002428472 95304.4933088795 572115.739437162
 -1191.08024283357 95077.8052877162 572152.770044440
 -1776.57366531021 94778.6001585298 572200.891940935
 -2643.09262287198 94387.7339528382 572262.151238954
 -3922.60488513704 93883.2780406702 572337.787740119
 -5807.75621273991 93241.6312714728 572426.648720697
 -8579.18033468235 92439.9400890194 572521.838134689
 -12644.7917240554 91460.5610946105 572603.767894095
 -18596.0650297096 90298.5137059651 572625.850610942
 -27287.9891090110 88972.9748806084 572485.087483754
 -39950.8575996392 87543.5478182772 571961.586308418
 -58341.2199025540 86130.6372745797 570594.265115727
 -84929.3226103269 84935.2219345447 567426.663310670
 -123079.889046010 84243.1744146925 560494.806824254
 -177051.031924466 84376.0770760770 545832.950371937
 -251258.314386409 85503.0947078816 515711.625084286
 -0.000000000000000 0.000000000000000 -0.000000000000000
 0.000000000000000 0.000000000000000 -0.000000000000000
 -0.000000000000000 0.000000000000000 0.000000000000000
 0.000000000000000 0.000000000000000 -0.000000000000000
 0.000000000000000 0.000000000000000 0.000000000000000
 -0.000000000000000 0.000000000000000 0.000000000000000
 0.000000000000000 0.000000000000000 0.000000000000000
 0.000000000000000 0.000000000000000 0.000000000000000
 -0.000000000000000 -0.000000000000000 0.000000000000000
 -0.000000000000000 -0.000000000000000 0.000000000000000
 -0.000000000000000 -0.000000000000000 -0.000000000000000
 0.000000000000000 0.000000000000000 0.000000000000000
 -0.000000000000000 -0.000000000000000 0.000000000000000
 0.000000000000000 0.000000000000000 -0.000000000000000
 0.000000000000000 0.000000000000000 0.000000000000000
 0.000000000000000 0.000000000000000 -0.000000000000000
 -0.000000000000000 -0.000000000000000 0.000000000000000
 0.000000000000000 -0.000000000000000 -0.000000000000000
 0.000000000000000 -0.000000000000000 -0.000000000000000
 0.000000000000000 0.000000000000000 -0.000000000000000
 0.000000000000000 -0.000000000000000 0.000000000000000
 0.000000000000000 -0.000000000000000 0.000000000000000
 -0.000000000000000 0.000000000000000 -0.000000000000000
 0.000000000000000 0.000000000000000 0.000000000000000
 -0.000000000000000 0.000000000000000 -0.000000000000000
 215987.597524580 79261.2574107872 532416.200720095
 144231.110820746 75284.4651568708 556713.243939335
 95745.5523774145 71369.5396644142 567573.059621432
 63592.6201984038 68470.4763605323 572422.721878913
 42331.0637290679 66658.1972871668 574599.656959514
 28238.1597010016 65693.4562259995 575575.343587426
 18865.4382231165 65297.0519688827 576003.810963802
 12613.9190706998 65242.0599162999 576180.841978936
 8435.66956398632 65369.4850242262 576242.717877350
 5639.69184166116 65577.7953934373 576253.196630845
 3767.71563158755 65807.1109684551 576242.334842647
 2514.42952353090 66025.2274623947 576224.215894048
 1675.75904119649 66217.1697210970 576205.239706967
 1115.00606815048 66378.0394120685 576188.087906439
 740.485725375380 66508.3973238338 576173.658514779
 490.668799753385 66611.4231590551 576162.023695466
 324.254530443298 66691.2516845531 576152.906620931
 213.525135553409 66752.0736491183 576145.914739104
 139.877735369169 66797.6808379188 576140.651463594
 90.8145959011567 66831.2817022556 576136.764613006
 57.9191542250876 66855.4559798532 576133.964153388
 35.4789121644157 66872.1834622396 576132.024643865
 19.5456555132674 66882.9013883475 576130.781263980
 7.28204507946355 66888.5546811384 576130.125231827
 -3.51350811896825 66889.6418936556 576129.999041010
 -14.7734590235301 66886.2340810968 576130.394504746
 -28.4841340684698 66877.9650604469 576131.353927234
 -47.0100065398586 66864.0020349695 576132.973385422
 -73.4756156035137 66842.9681173362 576135.411352747
 -112.259473492539 66812.8421914494 576138.899499167
 -169.675793336650 66770.8081218339 576143.758443049
 -254.943905576117 66713.0646270274 576150.416134255
 -381.587925163516 66634.5970755183 576159.426602775
 -569.468643807493 66528.9030916494 576171.485548257
 -847.735943960671 66387.7127405273 576187.428655685
 -1259.12431138846 66200.7175663384 576208.191194529
 -1866.19139503607 65955.3914352219 576234.677601326
 -2760.37583212917 65636.9918435125 576267.442796312
 -4075.11984179670 65228.9471535073 576305.975894333
 -6004.86387106927 64713.8784425813 576347.165818319
 -8832.49173256902 64075.6397712413 576382.077686061
 -12968.8962751400 63302.8878040861 576389.236649218
 -19009.7835906153 62394.7925301264 576320.672883561
 -27816.6468532432 61369.4526003963 576072.933269191
 -40630.3661543388 60275.2123453512 575426.860793696
 -59225.0431288407 59203.9247038329 573922.720900689
 -86098.8792155845 58302.3173129198 570603.034336275
 -124655.155352185 57771.2065130517 563492.306905914
 -179183.977655638 57828.4705875885 548588.160773639
 -254056.392357429 58584.0064870811 518095.805509222
 -0.000000000000000 -0.000000000000000 0.000000000000000
 0.000000000000000 -0.000000000000000 -0.000000000000000
 0.000000000000000 0.000000000000000 0.000000000000000
 -0.000000000000000 0.000000000000000 0.000000000000000
 -0.000000000000000 -0.000000000000000 -0.000000000000000
 0.000000000000000 0.000000000000000 -0.000000000000000
 -0.000000000000000 -0.000000000000000 -0.000000000000000
 -0.000000000000000 0.000000000000000 0.000000000000000
 0.000000000000000 -0.000000000000000 0.000000000000000
 0.000000000000000 -0.000000000000000 0.000000000000000
 -0.000000000000000 -0.000000000000000 -0.000000000000000
 0.000000000000000 0.000000000000000 0.000000000000000
 -0.000000000000000 0.000000000000000 0.000000000000000
 -0.000000000000000 -0.000000000000000 -0.000000000000000
 0.000000000000000 -0.000000000000000 0.000000000000000
 -0.000000000000000 -0.000000000000000 0.000000000000000
 -0.000000000000000 -0.000000000000000 -0.000000000000000
 -0.000000000000000 -0.000000000000000 -0.000000000000000
 -0.000000000000000 0.000000000000000 -0.000000000000000
 -0.000000000000000 0.000000000000000 0.000000000000000
 0.000000000000000 0.000000000000000 0.000000000000000
 -0.000000000000000 0.000000000000000 -0.000000000000000
 -0.000000000000000 0.000000000000000 -0.000000000000000
 -0.000000000000000 -0.000000000000000 0.000000000000000
 -0.000000000000000 -0.000000000000000 0.000000000000000
 195763.107985198 69994.1616696774 541458.791492146
 127989.766347655 63400.5371768920 562137.875966346
 84387.2637225634 56973.4938033734 570992.828961324
 56111.2209719286 52252.0547235814 574909.778711585
 37539.2017223389 49195.8329377851 576689.325682041
 25215.0727690647 47379.8396129513 577511.342662204
 16978.2999212121 46389.7082526107 577892.491991394
 11447.3285511024 45913.0645251587 578066.561197715
 7722.27507124615 45737.4067429631 578142.245552211
 5209.13339076717 45726.5004575713 578171.213469869
 3512.16427022374 45796.9417339626 578178.436842775
 2366.05416125263 45899.9942496950 578176.091096462
 1592.18172415781 46008.7851560506 578170.093178315
 1069.96503240846 46109.7451790975 578163.252528512
 717.869612603874 46197.0858423308 578156.824678993
 480.711818638299 46269.3334092990 578151.293090318
 321.127787412895 46327.2272966096 578146.767601404
 213.814798883871 46372.4832317518 578143.189082214
 141.631277316554 46407.1066996635 578140.433102847
 92.9471512835240 46433.0199941353 578138.362345080
 59.8452832089272 46451.8889436364 578136.850954954
 36.8878775831779 46465.0548421725 578135.794876773
 20.2613991089935 46473.5160410855 578135.115605560
 7.17640655634103 46477.9374864457 578134.760480206
 -4.57666892815448 46478.6589151316 578134.702508425
 -16.9803881420588 46475.6965736734 578134.940424516
 -32.1033113791345 46468.7290710867 578135.499850939
 -52.4285022231488 46457.0609825090 578136.436091101
 -81.2380453890521 46439.5712933296 578137.837905868
 -123.115473452961 46414.6237656728 578139.833901169
 -184.643925993345 46379.9561510863 578142.599688039
 -275.388982157440 46332.5370157113 578146.365702143
 -409.321979435528 46268.3931740418 578151.423286849
 -606.880000272861 46182.4198606367 578158.123520271
 -897.949543305973 46068.1778100751 578166.858856400
 -1326.20632495419 45917.7273067475 578178.003296361
 -1955.40945400930 45721.5292450386 578191.765885128
 -2878.52845494690 45468.5192959964 578207.858669323
 -4230.96868006073 45146.4734220209 578224.778820126
 -6209.71826561957 44742.8661572052 578238.285940234
 -9101.01807045119 44246.4751673830 578238.204294168
 -13320.2747907663 43650.0686568384 578201.731047004
 -19469.4086113216 42954.5270050051 578079.450195301
 -28418.5930632608 42174.6872496349 577766.111262767
 -41420.7921288612 41346.8874167874 577039.645847979
 -60266.1708988154 40537.3915143933 575434.365096840
 -87471.3539115101 39849.1399963615 571979.727163855
 -126451.282157754 39420.4927867629 564673.443672632
 -181472.395012906 39401.4398648259 549468.194152180
 -256781.363287213 39875.0465139963 518529.952976554
 0.000000000000000 -0.000000000000000 0.000000000000000
 0.000000000000000 -0.000000000000000 0.000000000000000
 0.000000000000000 -0.000000000000000 0.000000000000000
 0.000000000000000 -0.000000000000000 -0.000000000000000
 -0.000000000000000 0.000000000000000 -0.000000000000000
 0.000000000000000 0.000000000000000 -0.000000000000000
 -0.000000000000000 -0.000000000000000 -0.000000000000000
 0.000000000000000 -0.000000000000000 0.000000000000000
 0.000000000000000 -0.000000000000000 0.000000000000000
 -0.000000000000000 -0.000000000000000 0.000000000000000
 0.000000000000000 0.000000000000000 -0.000000000000000
 0.000000000000000 0.000000000000000 0.000000000000000
 0.000000000000000 -0.000000000000000 -0.000000000000000
 0.000000000000000 -0.000000000000000 0.000000000000000
 -0.000000000000000 0.000000000000000 0.000000000000000
 -0.000000000000000 0.000000000000000 0.000000000000000
 0.000000000000000 -0.000000000000000 0.000000000000000
 0.000000000000000 -0.000000000000000 -0.000000000000000
 0.000000000000000 -0.000000000000000 -0.000000000000000
 0.000000000000000 0.000000000000000 0.000000000000000
 0.000000000000000 -0.000000000000000 0.000000000000000
 -0.000000000000000 -0.000000000000000 -0.000000000000000
 -0.000000000000000 -0.000000000000000 0.000000000000000
 0.000000000000000 0.000000000000000 0.000000000000000
 -0.000000000000000 0.000000000000000 -0.000000000000000
 156856.224258544 72354.1349315228 553679.513861281
 101927.713083974 59146.7269863683 567901.757342123
 68393.8892887990 48548.5212200524 573903.578134252
 46425.3598659212 41569.1444089616 576642.603520089
 31652.1045132230 37260.5416361707 577935.806397963
 21618.1106032945 34698.0276690773 578557.433769388
 14774.2415620030 33228.3948289152 578858.873615462
 10097.1027347167 32425.2852035427 579004.878559614
 6897.88947503137 32018.7143620689 579074.452079688
 4709.04108086856 31840.8894244397 579106.192932487
 3211.74547325231 31789.3835112396 579119.262144673
 2188.03761688640 31803.0059736904 579123.286789976
 1488.66203964711 31846.2233108200 579123.131938424
 1011.32330144698 31899.2135633491 579121.245853767
 685.885290557230 31951.5827298889 579118.835751716
 464.258904186804 31998.4394709800 579116.468713412
 313.477941392367 32037.9819459227 579114.383731239
 210.950187734650 32070.0444832929 579112.655488427
 141.188390790290 32095.2439871865 579111.280652727
 93.5591918349824 32114.4897441245 579110.223355755
 60.7333683651769 32128.7137601792 579109.438762290
 37.6093259471402 32138.7377075435 579108.884514911
 20.5517271520050 32145.2017316224 579108.526602104
 6.85213223670681 32148.5380531510 579108.341723803
 -5.68261892584740 32148.9586301208 579108.318388457
 -19.0652548411199 32146.4368344805 579108.458093441
 -35.4288644337082 32140.6940174011 579108.776080000
 -57.3585273387964 32131.1660518631 579109.303049215
 -88.2763167426940 32116.9544718541 579110.087498694
 -132.952724678991 32096.7677071605 579111.198153106
 -198.219178763490 32068.8284371046 579112.727326752
 -293.964766343839 32030.7739523101 579114.792683396
 -434.587401548957 31979.5311766615 579117.536187181
 -641.080866805037 31911.1779197282 579121.114913882
 -944.057123969324 31820.8160315010 579125.672391784
 -1388.13758978637 31702.4592008451 579131.269363562
 -2038.31451351353 31549.0001395723 579137.726162039
 -2989.17218277420 31352.2956880765 579144.281163812
 -4378.23410089181 31103.4880488284 579148.861776792
 -6405.28380751926 30793.6741963162 579146.546194343
 -9360.27734348612 30415.1060801709 579126.330372040
 -13663.5868242847 29963.1155319829 579064.347117583
 -19923.7589586868 29438.9758047241 578909.656624006
 -29019.6996550526 28853.8348036869 578554.503265727
 -42215.4040816882 28233.6429202711 577772.205168845
 -61313.5306861325 27624.5550258807 576088.131204265
 -88840.7200444400 27097.2748906898 572514.684663620
 -128207.848103469 26746.6749359172 565019.789976024
 -183635.541146289 26677.9245328156 549514.582491248
 -259232.238816254 26958.3243166777 518142.736230423
 243881.298329372 236313.467178437 470189.172094898
 173152.837921019 236348.880338780 500556.991243257
 120316.066578170 238057.096533436 515027.050661640
 82580.9782819172 240486.313994520 521293.309766518
 56256.2017868221 243106.240521781 523578.643166322
 38133.0854598020 245606.429766982 524045.178825673
 25760.9758459054 247823.268716915 523755.667850889
 17368.6732168858 249691.616064771 523213.556836640
 11710.8433577861 251206.920290107 522645.137111415
 7926.03868098530 252396.963281380 522142.653723257
 5425.81663064447 253302.282017295 521736.058212121
 3813.85841061963 253963.297927802 521428.900033032
 2829.09953705946 254411.849370061 521216.468557849