# ODT 1.0
# Table Start
# Title: mmArchive Data Table, Tue Apr 13 14:40:26 CEST 2021
# Columns: {Oxs_CGEvolve:evolver:Max mxHxm} {Oxs_CGEvolve:evolver:Total energy} {Oxs_CGEvolve:evolver:Delta E} {Oxs_CGEvolve:evolver:Bracket count} {Oxs_CGEvolve:evolver:Line min count} {Oxs_CGEvolve:evolver:Conjugate cycle count} {Oxs_CGEvolve:evolver:Cycle count} {Oxs_CGEvolve:evolver:Cycle sub count} {Oxs_CGEvolve:evolver:Energy calc count} Oxs_UniformExchange:exchange:Energy {Oxs_UniformExchange:exchange:Max Spin Ang} {Oxs_UniformExchange:exchange:Stage Max Spin Ang} {Oxs_UniformExchange:exchange:Run Max Spin Ang} Oxs_DMExchange6Ngbr:dmi:Energy Oxs_UniaxialAnisotropy:uniaxialanisotropy:Energy Oxs_MinDriver::Iteration {Oxs_MinDriver::Stage iteration} Oxs_MinDriver::Stage Oxs_MinDriver::mx    Oxs_MinDriver::my    Oxs_MinDriver::mz   
# Units:                 A/m                                 J                                J                                 {}                                   {}                                        {}                                      {}                                   {}                                      {}                                     J                                      deg                                            deg                                              deg                                     J                                       J                                    {}                           {}                         {}                 {}                   {}                   {}           
                  0.098901474766599995              -5.3385942149000001e-19               0                                 74                                   63                                        3                                       67                                   63                                      138                                   2.4181699948200002e-19                     8.3280221425400001                             14.282975174900001                               14.282975174900001                     -1.0748555725500001e-18                     2.9917915157599999e-19                  132                          132                        0                   -0.00059289375559399996  0                    0.97443682202100002
# Table End
