# OOMMF OVF 2.0
# 
# Segment count: 1
# 
# Begin: Segment
# Begin: Header
# 
# Title: Field
# Desc: File generated by Field class
# meshunit: m
# meshtype: rectangular
# xbase: -4.7499999999999995e-08
# ybase: -4.7499999999999995e-08
# zbase: 0.0
# xnodes: 20
# ynodes: 20
# znodes: 1
# xstepsize: 5e-09
# ystepsize: 5e-09
# zstepsize: 5e-09
# xmin: -5e-08
# ymin: -5e-08
# zmin: -2.5e-09
# xmax: 5e-08
# ymax: 5e-08
# zmax: 2.5e-09
# valuedim: 3
# valuelabels: field_x field_y field_z
# valueunits: None None None
# 
# End: Header
# 
# Begin: Data Text
 0.0 -0.0 0.0
 0.0 -0.0 0.0
 0.0 -0.0 0.0
 0.0 -0.0 0.0
 0.0 -0.0 0.0
 0.0 -0.0 0.0
 0.0 -0.0 0.0
 758107.0954418009 -199501.8672215266 159601.49377722127
 773659.629810117 -122156.78365422893 162875.711538972
 781803.6398079323 -41147.55998989112 164590.23995956473
 781803.6398079323 41147.559989891226 164590.23995956473
 773659.629810117 122156.78365422905 162875.711538972
 758107.0954418009 199501.8672215266 159601.49377722127
 0.0 0.0 0.0
 0.0 0.0 0.0
 0.0 0.0 0.0
 0.0 0.0 0.0
 0.0 0.0 0.0
 0.0 0.0 0.0
 0.0 0.0 0.0
 0.0 -0.0 0.0
 0.0 -0.0 0.0
 0.0 -0.0 0.0
 0.0 -0.0 0.0
 0.0 -0.0 0.0
 692221.7740406311 -366470.35096268705 162875.711538972
 722831.844695718 -297636.64193353086 170078.08110487484
 748655.3602859253 -220192.75302527213 176154.2024202177
 767492.4012570165 -135439.835515944 180586.4473545921
 777460.25264604 -45732.95603800228 182931.82415200942
 777460.25264604 45732.956038002405 182931.82415200942
 767492.4012570165 135439.83551594408 180586.4473545921
 748655.3602859253 220192.75302527213 176154.2024202177
 722831.844695718 297636.64193353103 170078.08110487484
 692221.774040631 366470.3509626872 162875.711538972
 0.0 0.0 0.0
 0.0 0.0 0.0
 0.0 0.0 0.0
 0.0 0.0 0.0
 0.0 0.0 0.0
 0.0 -0.0 0.0
 0.0 -0.0 0.0
 0.0 -0.0 0.0
 592637.7579897539 -513619.39025778655 158036.73546393434
 630705.9974731641 -462517.7314803203 168188.26599284375
 668733.8550904234 -401240.31305425405 178329.02802411292
 704664.2634176442 -328843.3229282339 187910.4702447051
 735767.2073819591 -245255.73579398633 196204.58863518905
 758946.6384404111 -151789.3276880821 202385.77025077626
 771389.21583987 -51425.94772265792 205703.79089063202
 771389.21583987 51425.94772265805 205703.79089063202
 758946.6384404111 151789.3276880822 202385.77025077626
 735767.2073819591 245255.73579398633 196204.58863518905
 704664.2634176442 328843.322928234 187910.4702447051
 668733.8550904233 401240.3130542542 178329.0280241129
 630705.9974731641 462517.7314803203 168188.26599284375
 592637.7579897537 513619.3902577867 158036.73546393434
 0.0 0.0 0.0
 0.0 0.0 0.0
 0.0 0.0 0.0
 0.0 -0.0 0.0
 0.0 -0.0 0.0
 513619.39025778655 -592637.7579897539 158036.73546393434
 552753.7635908432 -552753.7635908432 170078.08110487487
 594528.4284940307 -503062.516418026 182931.82415200947
 637664.9130643645 -441460.32442917547 196204.5886351891
 679869.268479038 -366083.4522579435 209190.54414739631
 717668.1817160484 -276026.22373694176 220820.9789895534
 746676.4849624475 -172309.95806825705 229746.61075767622
 762564.9981110371 -58658.84600854123 234635.3840341653
 762564.9981110371 58658.84600854139 234635.3840341653
 746676.4849624475 172309.9580682572 229746.61075767622
 717668.1817160484 276026.22373694176 220820.9789895534
 679869.268479038 366083.45225794363 209190.54414739631
 637664.9130643643 441460.32442917564 196204.58863518905
 594528.4284940306 503062.51641802595 182931.82415200945
 552753.7635908431 552753.7635908433 170078.08110487484
 513619.39025778655 592637.7579897539 158036.73546393434
 0.0 0.0 0.0
 0.0 0.0 0.0
 0.0 -0.0 0.0
 0.0 -0.0 0.0
 462517.7314803203 -630705.9974731641 168188.26599284375
 503062.516418026 -594528.4284940307 182931.82415200947
 547864.0696009275 -547864.0696009275 199223.29803670093
 596011.2061011649 -487645.5322645894 216731.34767315089
 645247.3060939545 -410611.9220597892 234635.3840341653
 691393.2971601797 -314269.6805273545 251415.7444218836
 728293.1819700839 -198625.41326456823 264833.88435275777
 749105.7470676987 -68100.52246069978 272402.0898427996
 749105.7470676987 68100.52246069997 272402.0898427996
 728293.1819700837 198625.41326456834 264833.88435275777
 691393.2971601797 314269.6805273545 251415.7444218836
 645247.3060939544 410611.92205978924 234635.38403416524
 596011.2061011646 487645.53226458956 216731.3476731508
 547864.0696009274 547864.0696009274 199223.2980367009
 503062.5164180258 594528.4284940307 182931.82415200942
 462517.7314803203 630705.9974731641 168188.26599284375
 0.0 0.0 0.0
 0.0 0.0 0.0
 0.0 -0.0 0.0
 366470.35096268705 -692221.7740406311 162875.711538972
 401240.31305425405 -668733.8550904234 178329.02802411292
 441460.32442917547 -637664.9130643645 196204.5886351891
 487645.5322645894 -596011.2061011649 216731.34767315089
 539662.8160770203 -539662.8160770203 239850.1404786757
 595876.2397937048 -463459.297617326 264833.88435275777
 651857.3715061333 -362142.98417007417 289714.38733605936
 699325.8208972303 -233108.60696574327 310811.4759543246
 727309.8320775918 -80812.20356417676 323248.8142567075
 727309.8320775917 80812.20356417695 323248.81425670744
 699325.8208972302 233108.60696574344 310811.4759543246
 651857.3715061333 362142.98417007417 289714.38733605936
 595876.2397937048 463459.2976173261 264833.88435275777
 539662.8160770201 539662.8160770205 239850.14047867566
 487645.53226458933 596011.2061011649 216731.34767315086
 441460.3244291753 637664.9130643645 196204.58863518902
 401240.31305425405 668733.8550904234 178329.02802411292
 366470.35096268705 692221.7740406311 162875.711538972
 0.0 0.0 0.0
 0.0 -0.0 0.0
 297636.64193353086 -722831.844695718 170078.08110487484
 328843.3229282339 -704664.2634176442 187910.4702447051
 366083.4522579435 -679869.268479038 209190.54414739631
 410611.9220597892 -645247.3060939545 234635.3840341653
 463459.297617326 -595876.2397937048 264833.88435275777
 524488.0544857486 -524488.0544857486 299707.45970614214
 590291.8298980974 -421637.0213557839 337309.61708462716
 650986.776965388 -278994.33298516617 371992.4439802218
 689312.3494842632 -98473.19278346603 393892.7711338648
 689312.3494842632 98473.19278346631 393892.7711338648
 650986.7769653879 278994.33298516634 371992.44398022175
 590291.8298980974 421637.0213557839 337309.61708462716
 524488.0544857485 524488.0544857488 299707.4597061421
 463459.2976173259 595876.2397937052 264833.8843527577
 410611.9220597892 645247.3060939545 234635.38403416524
 366083.4522579434 679869.268479038 209190.54414739623
 328843.3229282339 704664.2634176442 187910.4702447051
 297636.64193353086 722831.844695718 170078.08110487484
 0.0 0.0 0.0
 199501.8672215266 -758107.0954418009 159601.49377722127
 220192.75302527213 -748655.3602859253 176154.2024202177
 245255.73579398633 -735767.2073819591 196204.58863518905
 276026.22373694176 -717668.1817160484 220820.9789895534
 314269.6805273545 -691393.2971601797 251415.7444218836
 362142.98417007417 -651857.3715061333 289714.38733605936
 421637.0213557839 -590291.8298980974 337309.61708462716
 492365.9639173309 -492365.9639173309 393892.7711338647
 565685.4249492382 -339411.2549695426 452548.3399593905
 617213.3998483677 -123442.67996967335 493770.7198786941
 617213.3998483677 123442.67996967366 493770.7198786941
 565685.424949238 339411.25496954285 452548.3399593904
 492365.9639173309 492365.9639173309 393892.7711338647
 421637.02135578386 590291.8298980976 337309.6170846271
 362142.98417007405 651857.3715061336 289714.3873360592
 314269.6805273544 691393.2971601798 251415.74442188354
 276026.22373694164 717668.1817160484 220820.97898955332
 245255.73579398633 735767.2073819591 196204.58863518905
 220192.75302527213 748655.3602859253 176154.2024202177
 199501.86722152657 758107.095441801 159601.49377722124
 122156.78365422893 -773659.629810117 162875.711538972
 135439.835515944 -767492.4012570165 180586.4473545921
 151789.3276880821 -758946.6384404111 202385.77025077626
 172309.95806825705 -746676.4849624475 229746.61075767622
 198625.41326456823 -728293.1819700839 264833.88435275777
 233108.60696574327 -699325.8208972303 310811.4759543246
 278994.33298516617 -650986.776965388 371992.4439802218
 339411.2549695426 -565685.4249492382 452548.3399593905
 411596.6043420211 -411596.6043420211 548795.4724560285
 470678.7243316415 -156892.90811054702 627571.6324421891
 470678.72433164145 156892.9081105474 627571.632442189
 411596.604342021 411596.60434202134 548795.4724560283
 339411.2549695426 565685.4249492382 452548.3399593905
 278994.33298516605 650986.7769653881 371992.44398022164
 233108.60696574318 699325.8208972303 310811.4759543244
 198625.4132645682 728293.1819700839 264833.88435275777
 172309.95806825702 746676.4849624477 229746.6107576762
 151789.3276880821 758946.6384404111 202385.77025077626
 135439.835515944 767492.4012570165 180586.4473545921
 122156.78365422893 773659.6298101172 162875.711538972
 41147.55998989112 -781803.6398079323 164590.23995956473
 45732.95603800228 -777460.25264604 182931.82415200942
 51425.94772265792 -771389.21583987 205703.79089063202
 58658.84600854123 -762564.9981110371 234635.3840341653
 68100.52246069978 -749105.7470676987 272402.0898427996
 80812.20356417676 -727309.8320775918 323248.8142567075
 98473.19278346603 -689312.3494842632 393892.7711338648
 123442.67996967335 -617213.3998483677 493770.7198786941
 156892.90811054702 -470678.7243316415 627571.6324421891
 188561.8083164124 -188561.8083164124 754247.2332656508
 188561.80831641235 188561.80831641288 754247.2332656507
 156892.90811054697 470678.7243316417 627571.6324421889
 123442.67996967335 617213.3998483677 493770.7198786941
 98473.19278346602 689312.3494842633 393892.7711338647
 80812.20356417671 727309.8320775919 323248.8142567073
 68100.52246069978 749105.7470676987 272402.0898427995
 58658.84600854121 762564.9981110371 234635.38403416518
 51425.94772265792 771389.21583987 205703.79089063202
 45732.95603800228 777460.25264604 182931.82415200942
 41147.55998989111 781803.6398079324 164590.2399595647
 -41147.559989891226 -781803.6398079323 164590.23995956473
 -45732.956038002405 -777460.25264604 182931.82415200942
 -51425.94772265805 -771389.21583987 205703.79089063202
 -58658.84600854139 -762564.9981110371 234635.3840341653
 -68100.52246069997 -749105.7470676987 272402.0898427996
 -80812.20356417695 -727309.8320775917 323248.81425670744
 -98473.19278346631 -689312.3494842632 393892.7711338648
 -123442.67996967366 -617213.3998483677 493770.7198786941
 -156892.9081105474 -470678.72433164145 627571.632442189
 -188561.80831641288 -188561.80831641235 754247.2332656507
 -188561.80831641282 188561.80831641282 754247.2332656505
 -156892.90811054737 470678.7243316417 627571.6324421888
 -123442.67996967366 617213.3998483677 493770.7198786941
 -98473.1927834663 689312.3494842633 393892.7711338647
 -80812.20356417692 727309.8320775919 323248.8142567073
 -68100.52246069997 749105.7470676987 272402.0898427995
 -58658.84600854137 762564.9981110371 234635.38403416518
 -51425.94772265805 771389.21583987 205703.79089063202
 -45732.956038002405 777460.25264604 182931.82415200942
 -41147.55998989122 781803.6398079324 164590.2399595647
 -122156.78365422905 -773659.629810117 162875.711538972
 -135439.83551594408 -767492.4012570165 180586.4473545921
 -151789.3276880822 -758946.6384404111 202385.77025077626
 -172309.9580682572 -746676.4849624475 229746.61075767622
 -198625.41326456834 -728293.1819700837 264833.88435275777
 -233108.60696574344 -699325.8208972302 310811.4759543246
 -278994.33298516634 -650986.7769653879 371992.44398022175
 -339411.25496954285 -565685.424949238 452548.3399593904
 -411596.60434202134 -411596.604342021 548795.4724560283
 -470678.7243316417 -156892.90811054697 627571.6324421889
 -470678.7243316417 156892.90811054737 627571.6324421888
 -411596.6043420213 411596.6043420213 548795.4724560282
 -339411.25496954285 565685.424949238 452548.3399593904
 -278994.3329851663 650986.7769653881 371992.44398022164
 -233108.60696574335 699325.8208972303 310811.4759543244
 -198625.41326456834 728293.1819700837 264833.88435275777
 -172309.95806825714 746676.4849624477 229746.6107576762
 -151789.3276880822 758946.6384404111 202385.77025077626
 -135439.83551594408 767492.4012570165 180586.4473545921
 -122156.78365422902 773659.6298101172 162875.711538972
 -199501.8672215266 -758107.0954418009 159601.49377722127
 -220192.75302527213 -748655.3602859253 176154.2024202177
 -245255.73579398633 -735767.2073819591 196204.58863518905
 -276026.22373694176 -717668.1817160484 220820.9789895534
 -314269.6805273545 -691393.2971601797 251415.7444218836
 -362142.98417007417 -651857.3715061333 289714.38733605936
 -421637.0213557839 -590291.8298980974 337309.61708462716
 -492365.9639173309 -492365.9639173309 393892.7711338647
 -565685.4249492382 -339411.2549695426 452548.3399593905
 -617213.3998483677 -123442.67996967335 493770.7198786941
 -617213.3998483677 123442.67996967366 493770.7198786941
 -565685.424949238 339411.25496954285 452548.3399593904
 -492365.9639173309 492365.9639173309 393892.7711338647
 -421637.02135578386 590291.8298980976 337309.6170846271
 -362142.98417007405 651857.3715061336 289714.3873360592
 -314269.6805273544 691393.2971601798 251415.74442188354
 -276026.22373694164 717668.1817160484 220820.97898955332
 -245255.73579398633 735767.2073819591 196204.58863518905
 -220192.75302527213 748655.3602859253 176154.2024202177
 -199501.86722152657 758107.095441801 159601.49377722124
 -0.0 -0.0 0.0
 -297636.64193353103 -722831.844695718 170078.08110487484
 -328843.322928234 -704664.2634176442 187910.4702447051
 -366083.45225794363 -679869.268479038 209190.54414739631
 -410611.92205978924 -645247.3060939544 234635.38403416524
 -463459.2976173261 -595876.2397937048 264833.88435275777
 -524488.0544857488 -524488.0544857485 299707.4597061421
 -590291.8298980976 -421637.02135578386 337309.6170846271
 -650986.7769653881 -278994.33298516605 371992.44398022164
 -689312.3494842633 -98473.19278346602 393892.7711338647
 -689312.3494842633 98473.1927834663 393892.7711338647
 -650986.7769653881 278994.3329851663 371992.44398022164
 -590291.8298980976 421637.02135578386 337309.6170846271
 -524488.0544857486 524488.0544857486 299707.45970614196
 -463459.297617326 595876.239793705 264833.8843527577
 -410611.92205978924 645247.3060939545 234635.38403416524
 -366083.4522579435 679869.268479038 209190.54414739623
 -328843.322928234 704664.2634176442 187910.4702447051
 -297636.64193353103 722831.844695718 170078.08110487484
 -0.0 0.0 0.0
 -0.0 -0.0 0.0
 -366470.3509626872 -692221.774040631 162875.711538972
 -401240.3130542542 -668733.8550904233 178329.0280241129
 -441460.32442917564 -637664.9130643643 196204.58863518905
 -487645.53226458956 -596011.2061011646 216731.3476731508
 -539662.8160770205 -539662.8160770201 239850.14047867566
 -595876.2397937052 -463459.2976173259 264833.8843527577
 -651857.3715061336 -362142.98417007405 289714.3873360592
 -699325.8208972303 -233108.60696574318 310811.4759543244
 -727309.8320775919 -80812.20356417671 323248.8142567073
 -727309.8320775919 80812.20356417692 323248.8142567073
 -699325.8208972303 233108.60696574335 310811.4759543244
 -651857.3715061336 362142.98417007405 289714.3873360592
 -595876.239793705 463459.297617326 264833.8843527577
 -539662.8160770203 539662.8160770203 239850.14047867557
 -487645.53226458956 596011.2061011647 216731.3476731508
 -441460.32442917547 637664.9130643643 196204.588635189
 -401240.3130542542 668733.8550904233 178329.0280241129
 -366470.3509626872 692221.774040631 162875.711538972
 -0.0 0.0 0.0
 -0.0 -0.0 0.0
 -0.0 -0.0 0.0
 -462517.7314803203 -630705.9974731641 168188.26599284375
 -503062.51641802595 -594528.4284940306 182931.82415200945
 -547864.0696009274 -547864.0696009274 199223.2980367009
 -596011.2061011649 -487645.53226458933 216731.34767315086
 -645247.3060939545 -410611.9220597892 234635.38403416524
 -691393.2971601798 -314269.6805273544 251415.74442188354
 -728293.1819700839 -198625.4132645682 264833.88435275777
 -749105.7470676987 -68100.52246069978 272402.0898427995
 -749105.7470676987 68100.52246069997 272402.0898427995
 -728293.1819700837 198625.41326456834 264833.88435275777
 -691393.2971601798 314269.6805273544 251415.74442188354
 -645247.3060939545 410611.92205978924 234635.38403416524
 -596011.2061011647 487645.53226458956 216731.3476731508
 -547864.0696009274 547864.0696009274 199223.2980367009
 -503062.51641802595 594528.4284940307 182931.82415200942
 -462517.7314803203 630705.9974731641 168188.26599284375
 -0.0 0.0 0.0
 -0.0 0.0 0.0
 -0.0 -0.0 0.0
 -0.0 -0.0 0.0
 -513619.3902577867 -592637.7579897537 158036.73546393434
 -552753.7635908433 -552753.7635908431 170078.08110487484
 -594528.4284940307 -503062.5164180258 182931.82415200942
 -637664.9130643645 -441460.3244291753 196204.58863518902
 -679869.268479038 -366083.4522579434 209190.54414739623
 -717668.1817160484 -276026.22373694164 220820.97898955332
 -746676.4849624477 -172309.95806825702 229746.6107576762
 -762564.9981110371 -58658.84600854121 234635.38403416518
 -762564.9981110371 58658.84600854137 234635.38403416518
 -746676.4849624477 172309.95806825714 229746.6107576762
 -717668.1817160484 276026.22373694164 220820.97898955332
 -679869.268479038 366083.4522579435 209190.54414739623
 -637664.9130643643 441460.32442917547 196204.588635189
 -594528.4284940307 503062.51641802595 182931.82415200942
 -552753.7635908432 552753.7635908432 170078.08110487481
 -513619.3902577867 592637.7579897537 158036.73546393434
 -0.0 0.0 0.0
 -0.0 0.0 0.0
 -0.0 -0.0 0.0
 -0.0 -0.0 0.0
 -0.0 -0.0 0.0
 -592637.7579897539 -513619.39025778655 158036.73546393434
 -630705.9974731641 -462517.7314803203 168188.26599284375
 -668733.8550904234 -401240.31305425405 178329.02802411292
 -704664.2634176442 -328843.3229282339 187910.4702447051
 -735767.2073819591 -245255.73579398633 196204.58863518905
 -758946.6384404111 -151789.3276880821 202385.77025077626
 -771389.21583987 -51425.94772265792 205703.79089063202
 -771389.21583987 51425.94772265805 205703.79089063202
 -758946.6384404111 151789.3276880822 202385.77025077626
 -735767.2073819591 245255.73579398633 196204.58863518905
 -704664.2634176442 328843.322928234 187910.4702447051
 -668733.8550904233 401240.3130542542 178329.0280241129
 -630705.9974731641 462517.7314803203 168188.26599284375
 -592637.7579897537 513619.3902577867 158036.73546393434
 -0.0 0.0 0.0
 -0.0 0.0 0.0
 -0.0 0.0 0.0
 -0.0 -0.0 0.0
 -0.0 -0.0 0.0
 -0.0 -0.0 0.0
 -0.0 -0.0 0.0
 -0.0 -0.0 0.0
 -692221.7740406311 -366470.35096268705 162875.711538972
 -722831.844695718 -297636.64193353086 170078.08110487484
 -748655.3602859253 -220192.75302527213 176154.2024202177
 -767492.4012570165 -135439.835515944 180586.4473545921
 -777460.25264604 -45732.95603800228 182931.82415200942
 -777460.25264604 45732.956038002405 182931.82415200942
 -767492.4012570165 135439.83551594408 180586.4473545921
 -748655.3602859253 220192.75302527213 176154.2024202177
 -722831.844695718 297636.64193353103 170078.08110487484
 -692221.774040631 366470.3509626872 162875.711538972
 -0.0 0.0 0.0
 -0.0 0.0 0.0
 -0.0 0.0 0.0
 -0.0 0.0 0.0
 -0.0 0.0 0.0
 -0.0 -0.0 0.0
 -0.0 -0.0 0.0
 -0.0 -0.0 0.0
 -0.0 -0.0 0.0
 -0.0 -0.0 0.0
 -0.0 -0.0 0.0
 -0.0 -0.0 0.0
 -758107.095441801 -199501.86722152657 159601.49377722124
 -773659.6298101172 -122156.78365422893 162875.711538972
 -781803.6398079324 -41147.55998989111 164590.2399595647
 -781803.6398079324 41147.55998989122 164590.2399595647
 -773659.6298101172 122156.78365422902 162875.711538972
 -758107.095441801 199501.86722152657 159601.49377722124
 -0.0 0.0 0.0
 -0.0 0.0 0.0
 -0.0 0.0 0.0
 -0.0 0.0 0.0
 -0.0 0.0 0.0
 -0.0 0.0 0.0
 -0.0 0.0 0.0
# End: Data Text
# End: Segment
