# OOMMF OVF 2.0
#
# Segment count: 1
#
# Begin: Segment
# Begin: Header
#
# Title: Oxs_TimeDriver::Magnetization
# Desc: Oxs vector field output
# Desc:  MIF source file: C:/Users/Victor H. González/Documents/GitHub/Intro-to-magnetism-in-python/domain_wall_conversion_thin_film/drive-54/domain_wall_conversion_thin_film.mif
# Desc:  Iteration: 938, State id: 6803
# Desc:  Stage: 40, Stage iteration: 22
# Desc:  Stage simulation time: 4e-12 s
# Desc:  Total simulation time: 1.64e-10 s
# meshunit: m
# meshtype: rectangular
# xbase: 1.0000000000000001e-09
# ybase: 1.0000000000000001e-09
# zbase: 1.0000000000000001e-09
# xnodes: 125
# ynodes: 25
# znodes: 1
# xstepsize: 2.0000000000000001e-09
# ystepsize: 2.0000000000000001e-09
# zstepsize: 2.0000000000000001e-09
# xmin: 0
# ymin: 0
# zmin: 0
# xmax: 2.5000000000000004e-07
# ymax: 5.0000000000000004e-08
# zmax: 2.0000000000000001e-09
# valuedim: 3
# valuelabels: Magnetization_x Magnetization_y Magnetization_z
# valueunits: A/m A/m A/m
#
# End: Header
#
# Begin: Data Text
 0.000000000000000 -0.000000000000000 -0.000000000000000
 -0.000000000000000 0.000000000000000 0.000000000000000
 0.000000000000000 0.000000000000000 -0.000000000000000
 0.000000000000000 0.000000000000000 0.000000000000000
 0.000000000000000 0.000000000000000 0.000000000000000
 0.000000000000000 -0.000000000000000 0.000000000000000
 -0.000000000000000 -0.000000000000000 0.000000000000000
 -0.000000000000000 -0.000000000000000 -0.000000000000000
 -0.000000000000000 0.000000000000000 -0.000000000000000
 -0.000000000000000 -0.000000000000000 -0.000000000000000
 0.000000000000000 -0.000000000000000 -0.000000000000000
 0.000000000000000 0.000000000000000 0.000000000000000
 0.000000000000000 0.000000000000000 -0.000000000000000
 0.000000000000000 0.000000000000000 0.000000000000000
 0.000000000000000 0.000000000000000 -0.000000000000000
 -0.000000000000000 0.000000000000000 -0.000000000000000
 0.000000000000000 -0.000000000000000 -0.000000000000000
 -0.000000000000000 -0.000000000000000 0.000000000000000
 0.000000000000000 -0.000000000000000 -0.000000000000000
 -0.000000000000000 -0.000000000000000 -0.000000000000000
 0.000000000000000 -0.000000000000000 0.000000000000000
 0.000000000000000 -0.000000000000000 0.000000000000000
 0.000000000000000 0.000000000000000 -0.000000000000000
 -0.000000000000000 -0.000000000000000 0.000000000000000
 0.000000000000000 -0.000000000000000 0.000000000000000
 243303.482478580 279746.203754764 446033.044626285
 175512.172901305 278748.120070978 477383.454594268
 123773.593364166 277100.150650218 494262.687338776
 86099.3681239913 275287.266480583 503193.620510334
 59357.6573562716 273582.802467182 507965.666858872
 40640.3617218315 272059.309146975 510619.323278692
 27633.5577289685 270682.888302379 512217.883783377
 18617.0043655191 269376.708032113 513312.376938484
 12354.4387176114 268050.139937392 514194.992511126
 7975.60259722520 266611.996909657 515028.574806347
 4875.30483033123 264973.174238021 515912.248679015
 2640.34407098041 263050.840208535 516911.292243429
 994.665554741600 260769.850369824 518071.516084926
 -233.862154238375 258072.464151414 519421.359356072
 -1140.06037435710 254925.905600358 520971.671894145
 -1754.74760587929 251341.945341146 522708.472643182
 -2063.61173816377 247388.897100092 524589.816045064
 -2020.35497375427 243215.045979749 526538.089386560
 -1575.37677131420 239047.173862946 528444.856968224
 -699.824483968641 235194.395177263 530172.714049764
 579.633394254731 232000.018500063 531578.456524621
 2166.10084366713 229807.295535913 532525.975822406
 3891.25305070607 228864.027371715 532922.241161780
 5542.94437414001 229298.111836719 532720.988581997
 6915.96082958838 231043.887238495 531950.083800660
 7848.02488089928 233910.180439877 530682.990109965
 8273.20611054714 237563.056260524 529051.366467201
 8192.30791883897 241671.902398257 527188.370207623
 7706.34171348779 245880.215871575 525246.162994403
 6914.30276458506 249949.694164939 523332.917753253
 5975.59189188675 253665.924948026 521553.344176609
 4968.94426525395 256954.740394382 519951.508298365
 4023.46371063992 259745.306839198 518571.294341269
 3146.77658353213 262075.711543430 517403.536145762
 2422.56334738214 263953.823500954 516451.846977098
 1798.72418248296 265459.673127985 515682.001367217
 1334.61953063427 266626.737183096 515080.966266280
 946.386315483206 267533.405708990 514611.485669229
 690.037091569718 268213.800965987 514257.601616339
 470.480947599401 268726.928030951 513989.899510414
 350.376557446066 269101.349453504 513794.064736613
 233.638276571999 269373.073138259 513651.723331292
 190.990741921456 269567.007177695 513549.989936517
 129.379104762699 269698.077986464 513481.187573074
 124.949468341712 269791.433172628 513432.144469247
 89.2440877508088 269844.166230037 513404.439002147
 100.050000054589 269884.987317197 513382.979471266
 74.5407406053862 269896.232861684 513377.071878702
 88.5325972339555 269912.210407554 513368.669510409
 65.9650313529388 269903.106907588 513373.459121375
 77.6505319421304 269909.607276847 513370.039903044
 55.5568612181898 269892.000729429 513379.299208394
 63.0936916408401 269897.136260091 513376.598471130
 41.4830652512713 269877.477103900 513386.935586785
 44.9290050298794 269885.114475153 513382.920407485
 24.9229736259363 269866.701667928 513392.600949525
 25.2164281595454 269878.187847497 513386.563018826
 8.24765449659771 269862.430353014 513394.846697881
 6.59878305499444 269877.590195698 513386.877770184
 -6.07574491050411 269864.736474265 513393.634524973
 -8.56770201867345 269882.496189804 513384.298724605
 -16.1651125427003 269872.107209977 513389.759820680
 -18.7480354908378 269890.946736883 513379.855972144
 -21.1136424505997 269882.258442203 513384.423344097
 -23.4922046795336 269900.584805769 513374.788794328
 -21.1176523732541 269892.812381007 513378.875080691
 -23.4422676020665 269909.269600285 513370.222777189
 -17.3630171368395 269901.846949901 513374.125479223
 -20.1259207840622 269915.538138943 513366.927125338
 -11.7480935835288 269908.264544471 513370.751594376
 -15.6553335816866 269918.859388704 513365.181037058
 -6.60663882183959 269911.938088493 513368.820278040
 -12.5399391007552 269919.665111486 513364.757486188
 -4.68672025554711 269913.651554664 513367.919413029
 -13.9231331773286 269919.211154634 513364.996134140
 -9.76617935384954 269914.921602965 513367.251585730
 -24.7277565953169 269919.382668561 513364.905548053
 -28.5515546600056 269917.829563358 513365.721945491
 -54.6141201332780 269922.577129896 513363.223627144
 -75.1659203578173 269924.989857286 513361.952427942
 -124.678043337860 269931.774144642 513358.375564782
 -181.100668047274 269939.740641150 513354.169774763
 -282.194995333605 269950.856657061 513348.278808943
 -417.079555998953 269966.614595597 513339.900113401
 -633.052084236194 269985.272132448 513329.866729598
 -941.218857745923 270012.286545863 513315.185067943
 -1413.27913240329 270043.487167668 513297.689143853
 -2105.28495367506 270087.979777219 513271.907428338
 -3146.80670723345 270141.223032007 513238.557813341
 -4688.70793067337 270217.126655495 513186.828046072
 -6992.06369568231 270315.357125397 513108.876114460
 -10410.7675503245 270460.149720234 512974.583514936
 -15496.2156381224 270666.790216021 512737.121705708
 -23035.1047837603 270985.412800456 512285.359928398
 -34197.4463076541 271470.853060424 511404.058064346
 -50654.7995341439 272225.246909073 509634.679186425
 -74776.8379524319 273361.727693806 506045.245346790
 -109735.898029036 275007.677993573 498727.189682240
 -159348.108257548 277204.456136904 483906.881427186
 -226879.420121220 279860.369705580 454537.019607551
 -0.000000000000000 -0.000000000000000 -0.000000000000000
 -0.000000000000000 -0.000000000000000 -0.000000000000000
 0.000000000000000 0.000000000000000 -0.000000000000000
 0.000000000000000 -0.000000000000000 0.000000000000000
 -0.000000000000000 -0.000000000000000 -0.000000000000000
 -0.000000000000000 -0.000000000000000 -0.000000000000000
 0.000000000000000 0.000000000000000 0.000000000000000
 0.000000000000000 0.000000000000000 -0.000000000000000
 0.000000000000000 0.000000000000000 -0.000000000000000
 0.000000000000000 0.000000000000000 -0.000000000000000
 -0.000000000000000 0.000000000000000 0.000000000000000
 -0.000000000000000 -0.000000000000000 0.000000000000000
 0.000000000000000 -0.000000000000000 -0.000000000000000
 -0.000000000000000 -0.000000000000000 -0.000000000000000
 -0.000000000000000 0.000000000000000 0.000000000000000
 -0.000000000000000 0.000000000000000 0.000000000000000
 -0.000000000000000 -0.000000000000000 -0.000000000000000
 0.000000000000000 0.000000000000000 -0.000000000000000
 0.000000000000000 -0.000000000000000 0.000000000000000
 -0.000000000000000 -0.000000000000000 -0.000000000000000
 -0.000000000000000 0.000000000000000 0.000000000000000
 0.000000000000000 -0.000000000000000 -0.000000000000000
 0.000000000000000 0.000000000000000 -0.000000000000000
 0.000000000000000 -0.000000000000000 0.000000000000000
 -0.000000000000000 0.000000000000000 0.000000000000000
 241277.381555490 211589.769521418 483130.411569795
 171701.135433350 208845.074521762 513130.056553792
 120084.353796269 205400.908681323 528951.996580237
 83067.2007128345 202211.410043270 537224.707002616
 57028.5404357124 199524.873350400 541606.471979683
 38901.5085543029 197311.096266251 544017.466560045
 26338.6843132979 195445.916757427 545442.175974221
 17628.1326208758 193782.397488326 546385.972883617
 11555.4436218141 192179.898856856 547113.661132741
 7269.13231672648 190505.991196066 547772.422666354
 4181.51487388939 188640.462613851 548449.898165905
 1888.95094975623 186468.090116711 549204.955579004
 127.067184477425 183887.076107467 550077.746409158
 -1269.20024772165 180806.346170580 551096.592545422
 -2376.66916598070 177168.666948493 552273.134323379
 -3206.87093906277 172956.099539955 553602.658601551
 -3705.70160728659 168232.415954868 555053.260505319
 -3784.66533752716 163147.109560220 556568.681251854
 -3334.74416810795 157983.511848504 558059.216808885
 -2284.82491622631 153118.331426572 559418.945117382
 -632.973425947887 149034.445000988 560525.051668424
 1502.62751301340 146178.634861974 561274.931580279
 3890.85580899790 144944.227664676 561583.504127181
 6225.35210979150 145467.672443687 561427.111266392
 8187.16204249815 147719.610317056 560813.593902169
 9555.08421517981 151352.773365817 559822.327493391
 10194.9098298832 155990.186518610 558536.592824006
 10167.0129029517 161078.608570126 557090.938455961
 9544.36555858685 166266.871283568 555575.586756346
 8572.31103480241 171135.311885448 554111.198686142
 7344.63925308615 175567.318489184 552740.601867421
 6121.96492553761 179358.917838755 551536.852927491
 4889.81537957300 182586.230567909 550489.198906350
 3862.65863413594 185181.611596765 549629.739547180
 2909.54034982284 187299.973071891 548917.347751209
 2217.51780204307 188927.739223310 548362.464038857
 1580.27258158602 190219.571790970 547917.892796201
 1187.81404212637 191176.890704212 547585.596558630
 796.148319131441 191918.886240799 547326.691521568
 613.373106955807 192453.549221084 547139.155211579
 380.202293286484 192854.357079835 546998.219742569
 323.611969608540 193140.160059096 546897.407058801
 180.781927380590 193338.720016123 546827.309724397
 190.969306008326 193486.605557885 546774.996685485
 94.8813843021283 193569.039369199 546745.844058469
 135.069047614571 193645.675658717 546718.697370990
 61.4477720705593 193663.076154873 546712.547101677
 110.892961275975 193706.759731351 546697.063223438
 47.9901342215099 193688.691527059 546703.473988855
 95.9006439769208 193720.501517679 546692.196848286
 39.1972655446762 193683.909073584 546705.169016673
 80.5138462883855 193714.783065454 546694.225632048
 29.2735220240069 193669.401996739 546710.308914407
 62.0985549899534 193704.363319282 546697.920038883
 17.3120692220299 193655.826182696 546715.118398777
 41.4330227827105 193696.427514336 546700.733721374
 4.63454937935817 193647.980329039 546717.897725148
 20.6815051872019 193693.715340508 546701.695817624
 -6.73397712747564 193647.158478447 546718.188802858
 2.21126319264866 193696.320125637 546700.773334827
 -14.9599942397385 193652.552368024 546716.278098200
 -12.1126382844767 193702.818596466 546698.470750622
 -18.9184358586549 193662.198989586 546712.860946778
 -21.3164057806688 193711.089696922 546695.539833683
 -18.4299139119972 193673.718658459 546708.780212411
 -25.4465419094190 193718.974203773 546692.745869113
 -14.2566623517364 193684.920217888 546704.812011873
 -25.4754844252270 193724.795253764 546690.683160859
 -7.91071809871786 193694.254138405 546701.505257840
 -23.0627106726288 193727.701058788 546689.653560947
 -1.38850255465287 193701.070335174 546699.090313017
 -20.3227271329610 193727.800178504 546689.618545097
 2.97544988842278 193705.673583655 546697.459306928
 -19.8367498546338 193726.115947618 546690.215392916
 2.24602316046033 193709.236830713 546696.196768752
 -25.2690754873451 193724.456306042 546690.803279516
 -8.24911605921589 193713.696871427 546694.616377697
 -43.2174566009452 193725.347654259 546690.486297766
 -37.8141003976879 193721.795168726 546691.745544690
 -87.5805208311105 193732.205590308 546688.050762742
 -106.931563353943 193737.442504036 546686.191464204
 -189.269212075145 193749.932238333 546681.742821916
 -261.690426751511 193766.621840447 546675.797688778
 -417.592707519798 193786.211537896 546668.756958105
 -605.552753849874 193819.217899301 546656.879659230
 -927.424922164575 193854.116957681 546644.053495116
 -1369.45185568710 193912.804884833 546622.309006238
 -2063.33240860578 193977.810126126 546597.065339765
 -3066.44015693262 194081.477507054 546555.557133437
 -4589.01898366927 194206.651524841 546500.427637780
 -6831.68822677057 194398.770033213 546408.680609621
 -10190.1376241480 194652.766573456 546265.925681348
 -15163.9358483394 195038.895679093 546012.714340854
 -22562.6994422973 195589.290400020 545560.037094629
 -33511.3861352510 196429.148035972 544694.939210157
 -49693.8924696306 197673.368638420 543006.221310913
 -73472.3679698208 199540.989327621 539615.793618998
 -108134.529915374 202230.289305408 532738.053387810
 -157881.373920079 205872.468722162 518738.853751433
 -227291.922514705 210027.400616341 490537.330842325
 -0.000000000000000 0.000000000000000 -0.000000000000000
 -0.000000000000000 -0.000000000000000 0.000000000000000
 -0.000000000000000 -0.000000000000000 -0.000000000000000
 0.000000000000000 0.000000000000000 0.000000000000000
 0.000000000000000 -0.000000000000000 -0.000000000000000
 -0.000000000000000 0.000000000000000 0.000000000000000
 0.000000000000000 0.000000000000000 -0.000000000000000
 -0.000000000000000 0.000000000000000 0.000000000000000
 0.000000000000000 0.000000000000000 0.000000000000000
 0.000000000000000 -0.000000000000000 -0.000000000000000
 -0.000000000000000 0.000000000000000 0.000000000000000
 -0.000000000000000 0.000000000000000 0.000000000000000
 -0.000000000000000 0.000000000000000 -0.000000000000000
 -0.000000000000000 -0.000000000000000 0.000000000000000
 -0.000000000000000 0.000000000000000 0.000000000000000
 0.000000000000000 0.000000000000000 -0.000000000000000
 -0.000000000000000 0.000000000000000 -0.000000000000000
 -0.000000000000000 0.000000000000000 0.000000000000000
 0.000000000000000 -0.000000000000000 0.000000000000000
 0.000000000000000 0.000000000000000 -0.000000000000000
 -0.000000000000000 -0.000000000000000 0.000000000000000
 -0.000000000000000 0.000000000000000 -0.000000000000000
 -0.000000000000000 -0.000000000000000 -0.000000000000000
 -0.000000000000000 0.000000000000000 -0.000000000000000
 0.000000000000000 -0.000000000000000 0.000000000000000
 238231.607029099 160330.187500682 503924.530449084
 167134.958710497 157229.703322345 532676.943343719
 115571.366603197 152879.196709938 547422.332787760
 79245.7185133196 148709.522462371 554982.516865461
 54021.5233962540 145165.938460467 558935.170946363
 36609.6795892628 142269.634565264 561087.410695551
 24589.4505209997 139880.846592708 562342.162459461
 16244.7605540290 137818.441344692 563153.784485075
 10375.4837296919 135897.380014570 563759.036683715
 6151.93618427846 133946.382818572 564287.621883562
 2997.81622251698 131798.905758812 564818.609412505
 522.833865047706 129298.937582520 565403.848045608
 -1535.02723838941 126288.160845947 566082.100159973
 -3324.59510244291 122624.838274954 566879.260606212
 -4907.37191183747 118180.518638898 567810.956846696
 -6243.66921475450 112888.629533763 568873.601001774
 -7215.01268798588 106757.216916011 570044.594946974
 -7616.08376912605 99955.5961982578 571271.278865543
 -7219.46669521309 92815.9148948258 572479.768413586
 -5819.84434135769 85913.4061040668 573572.154191119
 -3357.02928541402 79945.1715455032 574454.088592758
 27.8962400640870 75711.4813304987 575037.190811639
 3948.93692711257 73793.8164591963 575272.873121558
 7855.22932538667 74548.8367085200 575135.433022216
 11188.3858391537 77788.4344181681 574651.006692831
 13498.6750249936 83100.3236245114 573857.231361662
 14634.8634347836 89654.2168895385 572841.987083845
 14597.9215344020 96807.1961440049 571677.590484017
 13704.5744787052 103776.250962365 570475.831542891
 12156.4173906218 110261.836058333 569293.025625003
 10397.1551443640 115853.089790466 568216.473494834
 8495.90021702914 120631.346074342 567252.940075056
 6823.74042797175 124450.930804155 566449.823363509
 5235.57721310522 127565.670040171 565773.442782928
 4036.74771677875 129929.285477108 565245.155170108
 2930.33202860646 131809.029939384 564816.601013675
 2215.41533901349 133179.497157176 564498.284737729
 1515.40661028486 134253.300001245 564246.182957033
 1158.22394073773 135011.958871986 564065.979721213
 731.546956636672 135595.123226793 563926.792585847
 598.354454311365 136001.402353235 563829.105784634
 333.015915176886 136297.174123445 563757.899657613
 324.428281859851 136511.735101504 563705.988016685
 146.357392053113 136642.451650908 563674.390926484
 199.203819370510 136759.443561343 563646.001418115
 65.9260832918149 136796.007213565 563637.159939067
 143.503912775926 136868.470123583 563619.553681964
 33.4705126487383 136851.256078626 563623.750909618
 115.700375356272 136907.947089966 563609.972087998
 19.5979910327074 136859.963244393 563621.637338971
 96.0437842103348 136915.616256198 563608.112788289
 11.0647131621878 136850.239491987 563623.998627239
 76.6630137381131 136911.538426395 563609.106356968
 3.08656723721463 136836.851927666 563627.249115050
 55.7250195375484 136905.829568868 563610.495577205
 -5.02237887585313 136826.969215230 563629.648324279
 34.1654553403060 136902.947321766 563611.197411243
 -12.2558048273187 136823.342976567 563630.528508270
 13.8778093915020 136904.086234969 563610.921629075
 -17.2355748819668 136826.122002263 563629.853752227
 -3.29367789167317 136908.587895530 563609.828294010
 -18.9276334394855 136833.976199763 563627.946964225
 -16.0979464710358 136914.862015298 563608.303966671
 -16.9903271381608 136844.885247785 563625.298485483
 -24.1165194250158 136921.061595706 563606.797607959
 -11.8648341196383 136856.747936752 563622.418293845
 -27.7759341918192 136925.600894043 563605.694655672
 -4.67632386760938 136867.850533607 563619.722391297
 -28.2023972547887 136927.522247168 563605.227846474
 2.96823332114573 136877.180551456 563617.456645439
 -27.0250496743408 136926.696597952 563605.428494456
 9.14925028808744 136884.577246716 563615.660204965
 -26.2967095242880 136923.871169411 563606.114953045
 11.5609900605129 136890.756230999 563614.159443186
 -28.7939630978917 136920.635882477 563606.900809816
 6.86101159773930 136897.310007814 563612.567696597
 -39.1410674174245 136919.445670838 563607.189330625
 -11.1680963969591 136906.851096426 563610.250082568
 -66.6299424735326 136923.899202623 563606.104817541
 -55.9151064383109 136923.531636172 563606.195279806
 -131.620025551393 136939.552917549 563602.290203749
 -157.501233518629 136954.278981877 563598.705340880
 -279.717043527238 136975.703283808 563593.451406492
 -383.881073351203 137011.324648239 563584.731476516
 -613.103465506347 137048.942996239 563575.382116495
 -887.453690117693 137117.193486544 563558.415495964
 -1359.81417987239 137190.229856917 563539.698457174
 -2008.07826366880 137314.796918213 563507.421574017
 -3026.79024300097 137459.541436730 563467.579376869
 -4500.36702591053 137688.939864042 563401.723937501
 -6737.01501757481 137977.872688885 563308.724658959
 -10033.0637478624 138414.140277009 563152.611112839
 -14967.6306440503 138998.719788205 562899.037066279
 -22276.6022847998 139859.938446651 562443.731059689
 -33144.1363445128 141058.273360641 561608.430975258
 -49218.8717010404 142789.969998027 559989.756278130
 -72946.9005550720 145197.055274604 556773.351408804
 -107721.244603327 148483.278402787 550226.180307581
 -158095.461197519 152588.496786014 536770.505707354
 -229329.760375174 156779.664152870 509144.378260606
 0.000000000000000 -0.000000000000000 0.000000000000000
 0.000000000000000 -0.000000000000000 0.000000000000000
 0.000000000000000 0.000000000000000 0.000000000000000
 -0.000000000000000 -0.000000000000000 -0.000000000000000
 0.000000000000000 0.000000000000000 -0.000000000000000
 -0.000000000000000 0.000000000000000 0.000000000000000
 0.000000000000000 0.000000000000000 -0.000000000000000
 -0.000000000000000 0.000000000000000 0.000000000000000
 -0.000000000000000 0.000000000000000 0.000000000000000
 -0.000000000000000 0.000000000000000 0.000000000000000
 -0.000000000000000 -0.000000000000000 -0.000000000000000
 -0.000000000000000 0.000000000000000 0.000000000000000
 0.000000000000000 0.000000000000000 -0.000000000000000
 -0.000000000000000 0.000000000000000 0.000000000000000
 -0.000000000000000 0.000000000000000 0.000000000000000
 0.000000000000000 0.000000000000000 0.000000000000000
 0.000000000000000 -0.000000000000000 0.000000000000000
 0.000000000000000 0.000000000000000 -0.000000000000000
 0.000000000000000 0.000000000000000 -0.000000000000000
 -0.000000000000000 0.000000000000000 0.000000000000000
 0.000000000000000 0.000000000000000 -0.000000000000000
 0.000000000000000 -0.000000000000000 0.000000000000000
 0.000000000000000 -0.000000000000000 0.000000000000000
 -0.000000000000000 0.000000000000000 0.000000000000000
 0.000000000000000 0.000000000000000 -0.000000000000000
 232034.753867589 124589.062992571 516756.652961760
 160305.216013818 121174.281053159 544076.310208424
 109414.622814501 115998.749683624 557649.289774673
 74257.0286334193 110914.806010557 564432.280708834
 50200.8981616001 106566.194919622 567911.538819314
 33744.9105031960 103025.228790551 569778.100007175
 22417.4607528635 100141.908904886 570849.415813207
 14512.5229599979 97694.9190822226 571528.730216473
 8862.36023710112 95458.8060091704 572021.918221960
 4658.50723275075 93210.4648162250 572442.230761415
 1343.30604849583 90736.7342153980 572856.911098037
 -1475.58828000607 87813.7622070406 573311.927144616
 -4055.15209557614 84215.7825995505 573839.052089195
 -6550.02745546821 79697.9933260661 574460.901193572
 -8991.13498142815 74033.9976826073 575185.297690125
 -11291.2639789696 67024.6098506926 576003.653662127
 -13200.2865621142 58599.4148879753 576881.149812910
 -14335.7900936509 48868.6420221690 577759.760583324
 -14198.0607208023 38292.9382015370 578560.339079393
 -12333.2192636322 27685.2943507165 579207.576072093
 -8487.75205234154 18279.7867967430 579649.728249538
 -2844.87243155176 11394.3304004504 579881.087754699
 3930.94373639560 8241.38705620541 579928.122460647
 10800.0208824022 9324.53558749332 579824.467045862
 16654.2810198269 14523.7043932332 579578.896212078
 20701.1898602304 22808.8631071573 579181.505663060
 22569.7269058560 33012.7812382867 578619.705594537
 22490.8489351204 43662.6066354304 577916.722803535
 20838.6312965896 53914.1017224812 577112.658916042
 18345.5916147096 62918.9072119678 576285.216176467
 15358.0464171793 70617.9178026910 575480.008423803
 12506.3561945111 76754.9957284500 574762.787317918
 9760.24432825213 81694.2188843786 574134.820605339
 7564.55524328903 85398.3231547182 573628.716075419
 5588.13432612077 88299.0863493681 573212.041137152
 4213.21685679891 90381.3912455298 572899.164705483
 2953.46677717113 91997.7822115951 572649.705406494
 2218.96494150621 93118.3795612121 572471.871433420
 1457.63454302518 93984.5574302347 572332.751348533
 1134.53577326676 94571.9925950282 572236.708928382
 672.815180192671 95014.7318593125 572164.091890986
 584.764027130512 95321.0954748771 572113.229010222
 287.847498218694 95527.1312929930 572079.089226961
 321.718649865293 95693.4981319468 572051.265982676
 110.876234780563 95766.1754008405 572039.183409280
 200.646922956846 95869.1409417322 572021.911779529
 34.6551530376687 95865.0752526832 572022.627302293
 143.839593447406 95945.0841317490 572009.195853636
 3.48825232907957 95895.5769212156 572017.515741240
 112.593430421909 95973.0496537091 572004.511400816
 -9.50570552795884 95895.9619912553 572017.451117895
 89.3882366367381 95980.1914485691 572003.317175031
 -16.0466498341996 95886.3115791292 572019.068733076
 67.5924149830897 95980.3211060114 572003.298409767
 -20.3314226965263 95876.6931585474 572020.680828600
 45.8094602852556 95979.9226978005 572003.367420523
 -23.1456756599672 95871.5525302190 572021.542321374
 24.8509977399856 95981.4103649250 572003.119088339
 -24.0264710283805 95872.1287144797 572021.445715528
 6.14228796540197 95984.9615913218 572002.523692497
 -22.3662996703958 95877.8600323499 572020.485171088
 -9.09042628327020 95989.6220158849 572001.741590541
 -17.9319386105664 95887.2766197591 572018.906908584
 -20.1895112618715 95994.0284373797 572001.001831943
 -11.0442200367250 95898.6184541946 572017.005740741
 -27.1687961690000 95996.9098016994 572000.517980868
 -2.55414817711381 95910.2815713558 572015.050398484
 -30.6549473776628 95997.4296144871 572000.430565997
 6.28839462171935 95921.1280857202 572013.231619007
 -31.7590362354872 95995.3931223249 572000.772281519
 13.9708261520000 95930.6761205921 572011.630287236
 -31.9948765957860 95991.3437614146 572001.451833127
 18.7160317231540 95939.2030465122 572010.200056355
 -33.4220391911837 95986.6059204391 572002.246819750
 18.1131608414923 95947.8401419002 572008.751370132
 -39.3201048741827 95983.3861875912 572002.786732629
 7.96082415707702 95958.8022319645 572006.912729936
 -55.9921912387261 95985.1210246581 572002.494231237
 -20.5409910174483 95975.9874320864 572004.029194291
 -96.9723855182207 95997.3717609091 572000.432876895
 -87.1393547849504 96006.3306415388 571998.930841204
 -192.458818178529 96029.7679941637 571994.970798337
 -236.628641385900 96062.5745194583 571989.445517642
 -410.266752617299 96099.8957802003 571983.078169473
 -570.092286747313 96168.6860263820 571971.379373780
 -902.300333443299 96240.8331136467 571958.816608066
 -1314.12228157141 96370.2989409147 571936.218965601
 -2007.52590383324 96515.6783968977 571909.690128898
 -2974.02698438016 96754.8912684274 571865.059414484
 -4479.69554465803 97045.6793057365 571805.970986588
 -6672.11209925491 97490.8610327483 571708.855043568
 -9989.26436275294 98064.3619108642 571562.416119627
 -14891.3390992773 98901.4136053713 571311.437314789
 -22222.7253366135 100015.811565147 570879.135996034
 -33094.3123077572 101587.733178073 570074.292492318
 -49250.0789713343 103689.616257810 568526.950286111
 -73135.4358821059 106522.502537008 565423.880351358
 -108287.815315819 110115.714414300 559060.174304301
 -159410.332217128 114330.191349006 545817.692392364
 -231991.149889814 118204.881015616 518273.781390576
 -0.000000000000000 0.000000000000000 -0.000000000000000
 0.000000000000000 0.000000000000000 -0.000000000000000
 -0.000000000000000 0.000000000000000 0.000000000000000
 0.000000000000000 0.000000000000000 -0.000000000000000
 0.000000000000000 0.000000000000000 0.000000000000000
 -0.000000000000000 0.000000000000000 0.000000000000000
 0.000000000000000 0.000000000000000 0.000000000000000
 0.000000000000000 0.000000000000000 0.000000000000000
 -0.000000000000000 -0.000000000000000 0.000000000000000
 -0.000000000000000 -0.000000000000000 0.000000000000000
 -0.000000000000000 -0.000000000000000 -0.000000000000000
 0.000000000000000 0.000000000000000 0.000000000000000
 -0.000000000000000 -0.000000000000000 0.000000000000000
 0.000000000000000 0.000000000000000 -0.000000000000000
 0.000000000000000 0.000000000000000 0.000000000000000
 0.000000000000000 0.000000000000000 -0.000000000000000
 -0.000000000000000 -0.000000000000000 0.000000000000000
 0.000000000000000 -0.000000000000000 -0.000000000000000
 0.000000000000000 -0.000000000000000 -0.000000000000000
 0.000000000000000 0.000000000000000 -0.000000000000000
 0.000000000000000 -0.000000000000000 0.000000000000000
 0.000000000000000 -0.000000000000000 0.000000000000000
 -0.000000000000000 0.000000000000000 -0.000000000000000
 0.000000000000000 0.000000000000000 0.000000000000000
 -0.000000000000000 0.000000000000000 -0.000000000000000
 219957.019491867 101670.504455134 526955.423257123
 149027.294661704 97308.6202813237 552016.211595963
 100294.828709359 90867.3297378802 563989.428731131
 67420.9836999867 84692.2028579327 569808.425465960
 45254.3858687075 79522.1748937668 572737.517768665
 30185.6880445213 75392.4030653451 574286.348259569
 19787.1181874405 72083.0593335153 575163.022551830
 12435.6814154652 69314.6068947938 575708.988203896
 7026.96096864270 66801.5795031790 576097.362253488
 2798.14003556372 64272.4851523650 576421.042350711
 -799.744934791228 61446.3011191092 576735.392087930
 -4159.83258139905 58029.6643009956 577074.738533934
 -7569.02064819035 53683.1034588876 577460.677734380
 -11193.4502795191 48033.8196000061 577899.177059004
 -15074.5501382857 40660.4707255746 578376.593629534
 -19050.7779457833 31169.5663318376 578848.448209327
 -22722.9447306748 19257.2846052646 579234.688854525