# ODT 1.0
# Table Start
# Title: mmArchive Data Table, Fri Apr 16 16:10:21 CEST 2021
# Columns: {Anv_SpinTEvolve:evolver:Total energy} {Anv_SpinTEvolve:evolver:Energy calc count} {Anv_SpinTEvolve:evolver:Max dm/dt} Anv_SpinTEvolve:evolver:dE/dt {Anv_SpinTEvolve:evolver:Delta E} {Anv_SpinTEvolve:evolver:average u} Oxs_UniformExchange:exchange:Energy {Oxs_UniformExchange:exchange:Max Spin Ang} {Oxs_UniformExchange:exchange:Stage Max Spin Ang} {Oxs_UniformExchange:exchange:Run Max Spin Ang} Oxs_DMExchange6Ngbr:dmi:Energy Oxs_UniaxialAnisotropy:uniaxialanisotropy:Energy Oxs_TimeDriver::Iteration {Oxs_TimeDriver::Stage iteration} Oxs_TimeDriver::Stage Oxs_TimeDriver::mx   Oxs_TimeDriver::my   Oxs_TimeDriver::mz   {Oxs_TimeDriver::Last time step} {Oxs_TimeDriver::Simulation time}
# Units:                     J                                        {}                                    deg/ns                             J/s                              J                                 m/s                                  J                                      deg                                            deg                                              deg                                     J                                       J                                    {}                            {}                          {}                   {}                   {}                   {}                          s                                 s                
                    -1.15703821775e-18                        91                                      5340.5955884100003               1.8898926049900001e-09             2.05377748506e-22                  400                                 1.1571480296100001e-18                     25.9971239807                                  25.9971239807                                    25.9971239807                          -3.5349058635200004e-18                     1.2207196161500001e-18                  13                            13                          0                     0.0021391244926100002 -0.00073056261045300003  0.92325927326900004        1.11012558511e-13                2e-12                     
                    -1.15226404954e-18                        158                                     5775.5713018400002               2.7300082103900002e-09             1.47464731307e-22                  400                                 1.1675624777700001e-18                     27.523413720400001                             27.523413720400001                               27.523413720400001                     -3.5457756462800004e-18                     1.2259491189700001e-18                  25                            11                          1                     0.0035393785368099998 -0.00060087041598500001  0.92320865008200004        5.43328921827e-14                3.9999999999999999e-12       
                    -1.1463757221699999e-18                      231                                     6254.8932695699996               3.03305013991e-09               2.4044147513399999e-22                400                                 1.17913336509e-18                       28.151940616499999                             28.151940616499999                               28.151940616499999                     -3.5596597674100003e-18                     1.23415068016e-18                    37                            11                          2                     0.00436081117029     1.9412476414200001e-05  0.92325530899300001        7.9900220149399998e-14              6.0000000000000003e-12       
                    -1.1401213446400001e-18                      298                                     6425.2684724199999               3.0467457945500001e-09             2.26251543265e-22                  400                                 1.1906071200699999e-18                     28.456373216900001                             28.456373216900001                               28.456373216900001                     -3.5754841064200001e-18                     1.2447556417099999e-18                  49                            11                          3                     0.0046646253187300002  0.000794926030743    0.92345654282900003        7.5560160567699994e-14              7.9999999999999998e-12       
                    -1.1337930154399999e-18                      371                                     6348.5791833499998               3.13853468415e-09               3.6354392299e-22                   400                                 1.20221023688e-18                       28.716673809900001                             28.716673809900001                               28.716673809900001                     -3.5916638189199996e-18                     1.2556605666000001e-18                  61                            11                          4                     0.0046366739179099998  0.0014954004241699999  0.92382021001400005        1.1697745110699999e-13              9.9999999999999994e-12       
                    -1.1273771699400001e-18                      444                                     6324.8541199600004               3.2227392882399999e-09             3.5049809161700001e-22                400                                 1.21468497194e-18                       28.7075779163                                  28.744134863999999                               28.744134863999999                     -3.6067182609400003e-18                     1.26465611907e-18                    73                            11                          5                     0.0044766092901999998  0.00201072182399     0.92432599733999998        1.0943837276e-13                 1.2000000000000001e-11       
                    -1.12075396758e-18                        517                                     6071.7675706600003               3.28978228645e-09               2.4019704953199998e-22                400                                 1.2284557698299999e-18                     28.467556670299999                             28.7075779163                                    28.744134863999999                     -3.6201049767200001e-18                     1.2708952393e-18                     85                            11                          6                     0.0043293358841700004  0.0023248297049299998  0.92494235262000002        7.4056465115600006e-14              1.4e-11                   
                    -1.11381614436e-18                        584                                     5957.4843594399999               3.51630389907e-09               3.7474948186600001e-22                400                                 1.24342278263e-18                       28.011501196800001                             28.467556670299999                               28.744134863999999                     -3.6322963635299998e-18                     1.2750574365399999e-18                  97                            11                          7                     0.0042706087168199996  0.0024780434527299998  0.92563681949800003        1.07833748999e-13                1.6e-11                   
                    -1.1064683497e-18                         657                                     5742.6690817500003               3.7344993157799997e-09             3.83734123887e-22                  400                                 1.25926453771e-18                       27.368102521200001                             28.011501196800001                               28.744134863999999                     -3.64413397626e-18                       1.27840108885e-18                    109                           11                          8                     0.0043209260219900002  0.0025362188079700002  0.92638270511800003        1.0381221347e-13                 1.7999999999999999e-11       
                    -1.0986936382399999e-18                      730                                     5661.9128820300002               3.9476066487e-09                4.08927499699e-22                  400                                 1.2756541561100001e-18                     26.614695170800001                             27.368102521200001                               28.744134863999999                     -3.6562488009699998e-18                     1.2819010066199999e-18                  121                           11                          9                     0.0044662036256800002  0.0025673821277600001  0.92716267006499997        1.04499788268e-13                1.9999999999999999e-11       
                    -1.09052636563e-18                        803                                     5692.68116672                    4.1468606123100002e-09             4.5744382324499997e-22                400                                 1.2923572157100001e-18                     25.827011822900001                             26.614695170800001                               28.744134863999999                     -3.6688495306200002e-18                     1.2859659492799999e-18                  133                           11                          10                    0.0046760580571000004  0.0026252134195000002  0.92796808828300004        1.1091179979800001e-13              2.2000000000000002e-11       
                    -1.08202533923e-18                        870                                     5748.9097797300001               4.2860446539300001e-09             4.0570483095900002e-22                400                                 1.30923208479e-18                       26.179593992899999                             26.179593992899999                               28.744134863999999                     -3.6818100579799997e-18                     1.2905526339599999e-18                  145                           11                          11                    0.0049173788159799997  0.0027397937477499999  0.928794420407             9.5232809937899999e-14              2.4000000000000001e-11       
                    -1.07325483778e-18                        943                                     5826.9103494800001               4.3724771352700004e-09             3.6934194261200001e-22                400                                 1.32623066128e-18                       26.5371788088                                  26.5371788088                                    28.744134863999999                     -3.6948759992200003e-18                     1.29539050016e-18                    157                           11                          12                    0.0051628358015799996  0.00291644960895     0.92963539844999998        8.5289326696199994e-14              2.6000000000000001e-11       
                    -1.06426536683e-18                        1016                                    5856.7754394100002               4.4968880079900001e-09             4.7982293339800003e-22                400                                 1.3433991946599999e-18                     26.812579594900001                             26.812579594900001                               28.744134863999999                     -3.7078434655700001e-18                     1.30017890407e-18                    169                           11                          13                    0.00539496390869     0.0031420282787400001  0.93047909694599995        1.07617018774e-13                2.8e-11                   
                    -1.0550626442299999e-18                      1089                                    5851.06906686                    4.6266096063200001e-09             5.1372598650499999e-22                400                                 1.36086887461e-18                       27.014260459100001                             27.014260459100001                               28.744134863999999                     -3.7206538609100003e-18                     1.30472234208e-18                    181                           11                          14                    0.0056070321413999999  0.0033952695071100001  0.93130697868500001        1.11640085145e-13                3e-11                     
                    -1.04562333333e-18                        1156                                    5793.6996233299997               4.7429017478799998e-09             4.5619222148500001e-22                400                                 1.37878808597e-18                       27.156692577299999                             27.156692577299999                               28.744134863999999                     -3.7334026196100002e-18                     1.30899120032e-18                    193                           11                          15                    0.0058016946191900001  0.0036567005194900002  0.93209527880499998        9.6792956571300004e-14              3.1999999999999999e-11       
                    -1.03590846577e-18                        1229                                    5735.4966339700004               4.8559267085899997e-09             4.1863788405999998e-22                400                                 1.39727117314e-18                       27.2515306088                                  27.2515306088                                    28.744134863999999                     -3.7462883369700002e-18                     1.3131086980600001e-18                  205                           11                          16                    0.0059879489969599997  0.0039146823655599999  0.93281760984200002        8.7061119593999997e-14              3.3999999999999999e-11       
                    -1.02588404902e-18                        1302                                    5650.6523490299996               5.0506682629999996e-09             5.6537312832400004e-22                400                                 1.4163667681500001e-18                     27.3073069225                                  27.3073069225                                    28.744134863999999                     -3.7595402783099999e-18                     1.31728946113e-18                    217                           11                          17                    0.0061770612845099999  0.0041668100974600001  0.93344789860400001        1.12786666775e-13                3.5999999999999998e-11       
                    -1.0155122108999999e-18                      1375                                    5557.1916506099997               5.2440010131100004e-09             5.7869415756899996e-22                400                                 1.4360734172600001e-18                     27.336766180600002                             27.336864011100001                               28.744134863999999                     -3.7733546183600001e-18                     1.3217689901999999e-18                  229                           11                          18                    0.0063785591026900004  0.0044178916099500004  0.93396294139500002        1.10925505082e-13                3.7999999999999998e-11       
                    -1.0047836650699999e-18                      1442                                    5481.8396158100004               5.4097370472499999e-09             5.2383059722999998e-22                400                                 1.4563218519699999e-18                     27.350413485899999                             27.350642605499999                               28.744134863999999                     -3.7878560302899996e-18                     1.32675051325e-18                    241                           11                          19                    0.0065974205880300002  0.0046764571155299998  0.93434408654300005        9.7381576819600004e-14              3.9999999999999998e-11       
                    -9.9371700984899999e-19                      1515                                    5355.1839983999998               5.53805625919e-09               4.8552444127699997e-22                400                                 1.47698912685e-18                       27.3513719376                                  27.352069104400002                               28.744134863999999                     -3.8030849959900003e-18                     1.33237885929e-18                    253                           11                          20                    0.0068330134537999999  0.0049514408131400003  0.93457784713699998        8.8398135409000002e-14              4.1999999999999997e-11       
                    -9.8236178579999995e-19                      1588                                    5285.5153910099998               5.6968562154900002e-09             6.3777936318800004e-22                400                                 1.49790609505e-18                       27.338510303300001                             27.3513719376                                    28.744134863999999                     -3.8190042149699999e-18                     1.3387363341199999e-18                  265                           11                          21                    0.0070796040285499998  0.0052498790508399996  0.934655723838             1.12653489227e-13                4.4000000000000003e-11       
                    -9.7077010491699998e-19                      1661                                    5084.6640075599998               5.8154589794499999e-09             6.5092153026700001e-22                400                                 1.51889230639e-18                       27.312975143100001                             27.338510303300001                               28.744134863999999                     -3.8355149456200003e-18                     1.3458525343099999e-18                  277                           11                          22                    0.0073277813878700002  0.00557577833546     0.93457368291999998        1.1236844512700001e-13              4.6000000000000003e-11       
                    -9.59007400462e-19                        1728                                    5010.5044088200002               5.8745153805299996e-09             5.7308683261299996e-22                400                                 1.5397496441500001e-18                     27.270836443099999                             27.312975143100001                               28.744134863999999                     -3.8524761824899999e-18                     1.35371913788e-18                    289                           11                          23                    0.007566079941       0.00592987853735     0.93433171036200002        9.7978504659000006e-14              4.8000000000000002e-11       
                    -9.4714341389200007e-19                      1801                                    4762.3937906800002               5.8807175630400002e-09             5.2098923981600004e-22                400                                 1.56027548365e-18                       27.29717548                                    27.29717548                                      28.744134863999999                     -3.8697226856600003e-18                     1.3623037881199999e-18                  301                           11                          24                    0.0077822333148999997  0.0063099037148800002  0.93393361565599997        8.9171583415000006e-14              5.0000000000000002e-11       
                    -9.3525267447799997e-19                      1874                                    4600.5139365200002               5.9060706184000002e-09             6.7472882733000002e-22                400                                 1.5802708847600001e-18                     27.418237080699999                             27.418237080699999                               28.744134863999999                     -3.8870827855799998e-18                     1.3715592263400001e-18                  313                           11                          25                    0.0079638306054000008  0.0067109153386300004  0.93338711543800001        1.1474061213399999e-13              5.2000000000000001e-11       
                    -9.2339464628999994e-19                      1947                                    4375.76185704                    5.8864940122199996e-09             6.6028720671e-22                   400                                 1.5995762231999999e-18                     27.4735139115                                  27.4735139115                                    28.744134863999999                     -3.9043971459399998e-18                     1.3814262764399999e-18                  325                           11                          26                    0.0080983919731199994  0.0071254675224800001  0.93270412278600001        1.12459826239e-13                5.4000000000000001e-11       
                    -9.1163516332899996e-19                      2014                                    4058.5717478400002               5.8174662687799999e-09             5.8849111516699999e-22                400                                 1.61807304851e-18                       27.462188637400001                             27.477389623000001                               28.744134863999999                     -3.9215374960499998e-18                     1.39182928421e-18                    337                           11                          27                    0.0081731325299199999  0.0075433920667599998  0.93190118068399996        1.01422808389e-13                5.6e-11                   
                    -9.0004263938099999e-19                      2087                                    4158.8670512799999               5.68827094809e-09               4.8551316528700002e-22                400                                 1.63571202031e-18                       27.384611963099999                             27.462188637400001                               28.744134863999999                     -3.9384211083900002e-18                     1.4026664487e-18                     349                           11                          28                    0.0081747529745399995  0.0079511771547100003  0.930999940114             8.5764798992300004e-14              5.8e-11                   
                    -8.8869204068200003e-19                      2154                                    4272.4276604500001               5.5040044388799999e-09             4.7862048188800001e-22                400                                 1.6525274081e-18                        27.289726759099999                             27.384611963099999                               28.744134863999999                     -3.9550160760799998e-18                     1.4137966273000001e-18                  361                           11                          29                    0.0080895882507399999  0.0083310630382300004  0.93002763333799998        8.7795506604200006e-14              6e-11                     
                    -8.7767437088299998e-19                      2227                                    4322.1322354000004               5.3718887010699996e-09             6.25470264595e-22                  400                                 1.66863346445e-18                       27.4483885259                                  27.4483885259                                    28.744134863999999                     -3.9713323374300002e-18                     1.4250245021e-18                     373                           11                          30                    0.0079043154617900006  0.0086600613243800004  0.92901748200900003        1.1696741824300001e-13              6.2000000000000006e-11       
                    -8.6706210455500005e-19                      2300                                    4427.7701705400004               5.1265126815999996e-09             4.7250495074999999e-22                400                                 1.6842530507100001e-18                     27.531205983300001                             27.531205983300001                               28.744134863999999                     -3.9873984745700002e-18                     1.4360833193e-18                     385                           11                          31                    0.0076073189841600001  0.0089090530026899994  0.92800893011499996        9.2729737057800005e-14              6.3999999999999999e-11       
                    -8.5696805980599998e-19                      2373                                    4441.8674902800003               4.8547478498299996e-09             5.2629243354700003e-22                400                                 1.6996580912899999e-18                     27.540739054599999                             27.545431119300002                               28.744134863999999                     -4.0032340539299997e-18                     1.44660790283e-18                    397                           11                          32                    0.0071908712034700001  0.0090420465990500003  0.92704752329700002        1.0889655088199999e-13              6.6000000000000005e-11       
                    -8.4751893318500001e-19                      2446                                    5097.6524334899996               4.5039662830800001e-09             4.8091853612599999e-22                400                                 1.71521407954e-18                       27.483032820999998                             27.540739054599999                               28.744134863999999                     -4.0188364163400003e-18                     1.45610340361e-18                    409                           11                          33                    0.00665463797131     0.0090159763608999993  0.92618375434599998        1.07074400131e-13                6.7999999999999998e-11       
                    -8.3887316436600002e-19                      2513                                    5867.5653085100002               4.0314825398400001e-09             3.6377614299300001e-22                400                                 1.7313862681600001e-18                     27.367378766400002                             27.483032820999998                               28.744134863999999                     -4.0342034348199998e-18                     1.4639440022999999e-18                  421                           11                          34                    0.0060113814383199998  0.0087828769897599999  0.92546965901              9.0810189708500002e-14              7.0000000000000004e-11       
                    -8.3118303137199997e-19                      2586                                    6408.3024020900002               3.4522530190300002e-09             2.8268115425899999e-22                400                                 1.74870652817e-18                       27.207382030600002                             27.367378766400002                               28.744134863999999                     -4.0493887052600002e-18                     1.46949914571e-18                    433                           11                          35                    0.0052946780000899998  0.0082990417983500007  0.92495154035100002        8.3442470943700006e-14              7.1999999999999997e-11       
                    -8.2449152884499996e-19                      2659                                    6755.2747376200005               3.0228852173200001e-09             3.1842887405500001e-22                400                                 1.7675523527600001e-18                     27.022092714399999                             27.207382030600002                               28.744134863999999                     -4.0645106463199996e-18                     1.47246676472e-18                    445                           11                          36                    0.0045637275787500002  0.00754633407352     0.92465903351599998        1.07519192086e-13                7.4000000000000003e-11       
                    -8.18551737396e-19                        2732                                    6933.1556014600001               2.79398514742e-09               3.0675792307400001e-22                400                                 1.7878315500299999e-18                     26.836710056400001                             27.022092714399999                               28.744134863999999                     -4.0795989668299997e-18                     1.4732156794e-18                     457                           11                          37                    0.0038946817469800001  0.0065602564995700004  0.92459530709399995        1.11482141843e-13                7.5999999999999996e-11       
                    -8.1285584525500001e-19                      2799                                    6994.2290712800004               2.79600696286e-09               2.6626430854000002e-22                400                                 1.8088550921900002e-18                     26.7943499181                                  26.836710056400001                               28.744134863999999                     -4.09438285933e-18                       1.47267192189e-18                    469                           11                          38                    0.0033550547556899998  0.0054406200738699997  0.92473477785299996        9.7356365440499998e-14              7.8000000000000002e-11       