# OOMMF OVF 2.0
#
# Segment count: 1
#
# Begin: Segment
# Begin: Header
#
# Title: Oxs_TimeDriver::Magnetization
# Desc: Oxs vector field output
# Desc:  MIF source file: C:/Users/Victor H. González/Documents/GitHub/Intro-to-magnetism-in-python/domain_wall_conversion_thin_film/drive-14/domain_wall_conversion_thin_film.mif
# Desc:  Iteration: 481, State id: 3399
# Desc:  Stage: 39, Stage iteration: 11
# Desc:  Stage simulation time: 2e-12 s
# Desc:  Total simulation time: 8e-11 s
# meshunit: m
# meshtype: rectangular
# xbase: 1.0000000000000001e-09
# ybase: 1.0000000000000001e-09
# zbase: 1.0000000000000001e-09
# xnodes: 75
# ynodes: 25
# znodes: 1
# xstepsize: 2.0000000000000001e-09
# ystepsize: 2.0000000000000001e-09
# zstepsize: 2.0000000000000001e-09
# xmin: 0
# ymin: 0
# zmin: 0
# xmax: 1.5000000000000002e-07
# ymax: 5.0000000000000004e-08
# zmax: 2.0000000000000001e-09
# valuedim: 3
# valuelabels: Magnetization_x Magnetization_y Magnetization_z
# valueunits: A/m A/m A/m
#
# End: Header
#
# Begin: Data Text
 0.000000000000000 -0.000000000000000 -0.000000000000000
 -0.000000000000000 0.000000000000000 0.000000000000000
 0.000000000000000 0.000000000000000 -0.000000000000000
 0.000000000000000 0.000000000000000 0.000000000000000
 0.000000000000000 0.000000000000000 0.000000000000000
 0.000000000000000 -0.000000000000000 0.000000000000000
 -0.000000000000000 -0.000000000000000 0.000000000000000
 -0.000000000000000 -0.000000000000000 -0.000000000000000
 -0.000000000000000 0.000000000000000 -0.000000000000000
 -0.000000000000000 -0.000000000000000 -0.000000000000000
 0.000000000000000 -0.000000000000000 -0.000000000000000
 0.000000000000000 0.000000000000000 0.000000000000000
 0.000000000000000 0.000000000000000 -0.000000000000000
 0.000000000000000 0.000000000000000 0.000000000000000
 0.000000000000000 0.000000000000000 -0.000000000000000
 -0.000000000000000 0.000000000000000 -0.000000000000000
 0.000000000000000 -0.000000000000000 -0.000000000000000
 -0.000000000000000 -0.000000000000000 0.000000000000000
 0.000000000000000 -0.000000000000000 -0.000000000000000
 -0.000000000000000 -0.000000000000000 -0.000000000000000
 0.000000000000000 -0.000000000000000 0.000000000000000
 0.000000000000000 -0.000000000000000 0.000000000000000
 0.000000000000000 0.000000000000000 -0.000000000000000
 -0.000000000000000 -0.000000000000000 0.000000000000000
 0.000000000000000 -0.000000000000000 0.000000000000000
 226764.659930888 -150090.571154497 512299.335795925
 165394.587725617 -140849.213590777 537778.885213926
 129144.458327467 -129639.458873885 550377.433754502
 110244.283255831 -114524.639210600 557790.556591890
 101878.277284027 -94051.7270192474 563182.998023143
 98751.2968690683 -67940.2044147539 567478.907088853
 97132.6967660814 -37029.2145794984 570608.514207923
 94706.7501659359 -2893.07072200498 572208.232739450
 90368.0948303768 32579.9868644095 571989.643169038
 83879.3920806620 67571.3755463891 569910.832315852
 75620.8118526535 100594.221541612 566182.210429807
 66219.7856088526 130586.363842170 561214.880034731
 56428.8157399537 156987.718650220 555491.354520649
 46857.7103736919 179570.430890986 549507.793691919
 38018.5022994755 198497.592798997 543648.139089898
 30182.5685774379 214003.693263173 538229.906103136
 23506.6095687421 226573.075746009 533396.738510441
 17983.5028778164 236548.478325210 529264.972415775
 13537.7699153010 244457.289456357 525792.128523594
 10048.5986602876 250575.820669498 522982.584567376
 7348.75357518171 255358.616571426 520709.105704537
 5322.53465274981 258973.850074420 518945.291531296
 3790.66847064383 261779.069464503 517549.369261372
 2692.14646706613 263849.553099294 516503.790573411
 1862.57972470847 265455.938806661 515683.696997533
 1301.56039381354 266610.210345930 515089.605486114
 860.377894102351 267513.748053574 514621.855688435
 587.216843471294 268142.850318322 514294.727757873
 342.211771702248 268645.495891455 514032.567478304
 206.146736177643 268983.378168440 513855.913435485
 41.3882424692685 269262.935231679 513709.519083922
 -53.9799292452151 269445.613799254 513613.724787910
 -220.598683644726 269604.606801183 513530.239935099
 -358.076814090098 269709.919152956 513474.859454191
 -616.434222570486 269807.419373524 513423.389085313
 -911.153490614263 269880.354509830 513384.616100799
 -1414.75860244352 269952.080774150 513345.763149755
 -2087.35635070106 270021.121728580 513307.156353684
 -3154.79157966861 270093.406519862 513263.673996695
 -4676.31312610452 270184.043339694 513204.359704943
 -7001.80732728751 270289.161393105 513122.542798076
 -10401.6810519701 270444.537263411 512982.999031813
 -15505.8428162091 270651.271893271 512745.022268490
 -23028.8263616499 270978.736115217 512289.173933829
 -34206.1497059409 271460.814585559 511408.804643447
 -50651.4272949522 272222.839133139 509636.300480330
 -74784.1011474367 273354.927426142 506047.845433037
 -109735.656766320 275006.613580827 498727.829703608
 -159353.411746453 277200.121273110 483907.618178241
 -226882.233164401 279858.397459061 454536.829801482
 -0.000000000000000 -0.000000000000000 -0.000000000000000
 -0.000000000000000 -0.000000000000000 -0.000000000000000
 0.000000000000000 0.000000000000000 -0.000000000000000
 0.000000000000000 -0.000000000000000 0.000000000000000
 -0.000000000000000 -0.000000000000000 -0.000000000000000
 -0.000000000000000 -0.000000000000000 -0.000000000000000
 0.000000000000000 0.000000000000000 0.000000000000000
 0.000000000000000 0.000000000000000 -0.000000000000000
 0.000000000000000 0.000000000000000 -0.000000000000000
 0.000000000000000 0.000000000000000 -0.000000000000000
 -0.000000000000000 0.000000000000000 0.000000000000000
 -0.000000000000000 -0.000000000000000 0.000000000000000
 0.000000000000000 -0.000000000000000 -0.000000000000000
 -0.000000000000000 -0.000000000000000 -0.000000000000000
 -0.000000000000000 0.000000000000000 0.000000000000000
 -0.000000000000000 0.000000000000000 0.000000000000000
 -0.000000000000000 -0.000000000000000 -0.000000000000000
 0.000000000000000 0.000000000000000 -0.000000000000000
 0.000000000000000 -0.000000000000000 0.000000000000000
 -0.000000000000000 -0.000000000000000 -0.000000000000000
 -0.000000000000000 0.000000000000000 0.000000000000000
 0.000000000000000 -0.000000000000000 -0.000000000000000
 0.000000000000000 0.000000000000000 -0.000000000000000
 0.000000000000000 -0.000000000000000 0.000000000000000
 -0.000000000000000 0.000000000000000 0.000000000000000
 209879.486271405 -276897.620710846 464411.788057886
 156359.940076710 -268758.675286970 489612.442241004
 126649.964970301 -258006.458316427 503778.179201953
 113366.083450896 -242184.223804987 514679.446707346
 109729.309066463 -219722.315555995 525434.660808085
 110342.561363031 -190382.191168432 536636.879498374
 111335.240492002 -155123.663755739 547668.798789546
 110353.966797301 -115800.901852052 557505.294272935
 106296.917902438 -74667.8234118176 565266.027098202
 99152.1150682958 -33962.6958839135 570451.920292833
 89469.0401893992 4410.53000999859 573040.869460999
 78266.7455096399 39163.8552776195 573358.970442709
 66450.9345624448 69478.7259164388 571976.380579483
 54971.6642633723 95259.4284280964 569476.740019878
 44356.0503204129 116516.268309345 566441.965270263
 35057.5052435432 133875.764432655 563247.948086516
 27159.0094642244 147616.363261381 560242.623782238
 20691.6458291303 158587.937576037 557513.875924412
 15527.1455139549 166991.091420487 555223.273231935
 11474.9439035434 173644.248063683 553277.507926003
 8405.57968714161 178577.789158464 551760.201037913
 6042.54794103356 182500.689894524 550506.117861013
 4355.22334879770 185300.566241382 549585.964322420
 3037.02975545713 187569.739712488 548824.534067542
 2176.64509174245 189109.564424076 548299.949716832
 1450.25031896980 190406.737323018 547853.238701767
 1049.96092205580 191227.926049285 547568.057761728
 633.922200420470 191966.077279245 547310.353745169
 471.100761068285 192391.899633068 547160.977244954
 200.740016589176 192813.514545408 547012.713117432
 141.546611531507 193031.891090795 546935.708275176
 -83.8106506441826 193276.813342855 546849.217243480
 -132.524929324483 193395.437831929 546807.266834430
 -394.771734764242 193544.851457681 546754.272621167
 -529.678572208730 193626.309078091 546725.316656733
 -939.825204977363 193730.578539360 546687.826522037
 -1317.57035273691 193814.964259286 546657.135357746
 -2089.04371346558 193912.446876170 546620.159564994
 -3026.51000574683 194034.568949547 546572.434623032
 -4618.06320703156 194169.012470160 546513.557094953
 -6799.40268053296 194379.296089229 546416.011272587
 -10217.9130078044 194627.972112510 546274.241315785
 -15138.2534231784 195034.055396898 546015.155942338
 -22586.8736342158 195570.733747201 545565.689208012
 -33492.5666670308 196431.465153467 544695.261110024
 -49712.9443417452 197658.890314579 543009.747835602
 -73461.1728984671 199545.350483902 539615.705087091
 -108147.136533167 202220.202167630 532739.323398376
 -157878.528886429 205874.567958671 518738.886516605
 -227296.981895084 210023.132030729 490536.814146898
 -0.000000000000000 0.000000000000000 -0.000000000000000
 -0.000000000000000 -0.000000000000000 0.000000000000000
 -0.000000000000000 -0.000000000000000 -0.000000000000000
 0.000000000000000 0.000000000000000 0.000000000000000
 0.000000000000000 -0.000000000000000 -0.000000000000000
 -0.000000000000000 0.000000000000000 0.000000000000000
 0.000000000000000 0.000000000000000 -0.000000000000000
 -0.000000000000000 0.000000000000000 0.000000000000000
 0.000000000000000 0.000000000000000 0.000000000000000
 0.000000000000000 -0.000000000000000 -0.000000000000000
 -0.000000000000000 0.000000000000000 0.000000000000000
 -0.000000000000000 0.000000000000000 0.000000000000000
 -0.000000000000000 0.000000000000000 -0.000000000000000
 -0.000000000000000 -0.000000000000000 0.000000000000000
 -0.000000000000000 0.000000000000000 0.000000000000000
 0.000000000000000 0.000000000000000 -0.000000000000000
 -0.000000000000000 0.000000000000000 -0.000000000000000
 -0.000000000000000 0.000000000000000 0.000000000000000
 0.000000000000000 -0.000000000000000 0.000000000000000
 0.000000000000000 0.000000000000000 -0.000000000000000
 -0.000000000000000 -0.000000000000000 0.000000000000000
 -0.000000000000000 0.000000000000000 -0.000000000000000
 -0.000000000000000 -0.000000000000000 -0.000000000000000
 -0.000000000000000 0.000000000000000 -0.000000000000000
 0.000000000000000 -0.000000000000000 0.000000000000000
 172668.782580009 -419430.263654426 361474.404976502
 135730.275588859 -412372.669188487 384611.588482375
 119855.883686326 -401686.339986415 400852.406022576
 118372.815507373 -384631.035967253 417668.340576127
 124716.661602697 -359390.111487996 437817.886892855
 133389.144333761 -325419.202514532 461204.595389847
 140299.548061088 -283555.519831168 486119.639581792
 142826.689218004 -235782.219197115 510301.167897456
 139901.992683170 -184905.726646380 531636.440339310
 131628.251984400 -133983.471463111 548746.237029672
 119198.141594942 -85743.4654147766 561105.926879210
 104067.794622622 -42298.1959779838 569017.360666080
 88007.0850863390 -4676.73506828810 573265.105447477
 72233.0910447078 26611.9114841157 574868.843063605
 57860.0766706222 52135.1847213563 574747.017427442
 45284.5053108834 72217.7548526350 573701.934337678
 34806.1556810434 88096.1775728313 572212.893094662
 26295.2786511352 100100.418416075 570691.216467877
 19575.7991588425 109514.867998661 569230.429417234
 14416.6340034622 116377.370348076 568021.538618807
 10448.3571765253 121821.616137416 566965.894630338
 7569.09077532640 125617.762249146 566182.732580526
 5338.39767864265 128729.435800072 565508.827401324
 3847.13028538698 130765.855973324 565053.528880345
 2614.40675636184 132539.376235123 564647.216077895
 1908.75637506606 133595.263967878 564401.153519776
 1209.53531105442 134610.868585476 564161.724227189
 923.507470084265 135137.329949824 564036.389950139
 489.432174420849 135725.823612936 563895.612024723
 410.334391239606 135979.332152031 563834.597070076
 89.8047275961605 136327.323098764 563750.701030017
 88.2277039300013 136452.632679444 563720.383923378
 -215.388174890080 136666.774407194 563668.472048124
 -239.859399501181 136747.120546276 563648.975418009
 -619.646310580599 136893.076488011 563613.255387147
 -790.509486509617 136981.239501779 563591.620873934
 -1395.92650935888 137108.795586854 563559.428598177
 -1934.47662877911 137249.019672819 563523.703493493
 -3072.75839115027 137412.398159704 563478.829227743
 -4440.71765563609 137662.157382498 563408.741901915
 -6783.27903972685 137945.477115672 563316.103505659
 -9984.35064069548 138409.084575288 563154.719459328
 -15009.2619850978 138972.555665596 562904.388707742
 -22238.5256386780 139866.301241045 562443.655626559
 -33178.1587598964 141035.827175241 561612.059373994
 -49192.3018945038 142800.588880751 559989.383157958
 -72970.9998664822 145179.269772884 556774.831333725
 -107707.502323865 148492.021681508 550226.511029860
 -158107.637676615 152578.285152034 536769.821998578
 -229329.465233649 156780.768552447 509144.171122240
 0.000000000000000 -0.000000000000000 0.000000000000000
 0.000000000000000 -0.000000000000000 0.000000000000000
 0.000000000000000 0.000000000000000 0.000000000000000
 -0.000000000000000 -0.000000000000000 -0.000000000000000
 0.000000000000000 0.000000000000000 -0.000000000000000
 -0.000000000000000 0.000000000000000 0.000000000000000
 0.000000000000000 0.000000000000000 -0.000000000000000
 -0.000000000000000 0.000000000000000 0.000000000000000
 -0.000000000000000 0.000000000000000 0.000000000000000
 -0.000000000000000 0.000000000000000 0.000000000000000
 -0.000000000000000 -0.000000000000000 -0.000000000000000
 -0.000000000000000 0.000000000000000 0.000000000000000
 0.000000000000000 0.000000000000000 -0.000000000000000
 -0.000000000000000 0.000000000000000 0.000000000000000
 -0.000000000000000 0.000000000000000 0.000000000000000
 0.000000000000000 0.000000000000000 0.000000000000000
 0.000000000000000 -0.000000000000000 0.000000000000000
 0.000000000000000 0.000000000000000 -0.000000000000000
 0.000000000000000 0.000000000000000 -0.000000000000000
 -0.000000000000000 0.000000000000000 0.000000000000000
 0.000000000000000 0.000000000000000 -0.000000000000000
 0.000000000000000 -0.000000000000000 0.000000000000000
 0.000000000000000 -0.000000000000000 0.000000000000000
 -0.000000000000000 0.000000000000000 0.000000000000000
 0.000000000000000 0.000000000000000 -0.000000000000000
 104322.084349340 -541172.583711169 180690.722939467
 94454.7615408207 -536971.155811173 197839.014982080
 100855.203264550 -528645.135773507 216246.499156582
 117960.010801191 -513882.241922382 241682.596164078
 140087.560560591 -490504.568091915 276008.594172622
 162114.986693684 -456976.528582021 318262.758447219
 179724.665433045 -412856.025351306 365580.287988974
 189762.986322025 -359293.336739968 413881.996704867
 190517.350209923 -299075.552912748 458973.804175057
 182143.109669287 -236216.839126968 497418.830074683
 166163.011180634 -175080.367630820 527386.687910911
 145343.979594561 -119224.730639473 548689.886183043
 122335.415510456 -71095.9689711640 562476.141101056
 99748.1566017655 -31280.3265599597 570501.399143641
 79030.7858371797 200.990684041654 574590.371040712
 61251.4399083486 24803.5377559707 576223.086680795
 46514.9253711594 43213.1873470593 576514.511662129
 34781.2443107870 57322.5919748399 576111.434961570
 25661.3352692314 67458.2483492469 575491.859718147
 18678.6051191559 75306.0278579421 574787.014361895
 13528.8367256112 80696.0955467420 574199.539132838
 9615.10131067391 85032.8517466269 573652.302314408
 6909.08241654616 87820.6487671119 573271.138494068
 4772.30217383890 90234.1183309571 572917.995022845
 3454.69982082919 91629.5682878510 572705.934371672
 2274.81140188233 92994.5007654035 572491.788640221
 1705.26428921555 93661.8903443018 572384.959944648
 1011.17555026124 94451.7178513527 572256.804694304
 825.339994106626 94752.3991028060 572207.393938733
 360.016033020938 95222.6012955817 572129.816205167
 351.838273045825 95353.4574279011 572108.026832673
 -27.8579613842769 95644.3473332416 572059.575610034
 11.3990450999290 95715.0504082575 572047.750625248
 -382.167120434695 95909.4381325671 572015.064159492
 -411.396077416175 95986.6709692706 572002.088938060
 -934.978232693947 96144.1187292977 571975.029393304
 -1198.85064819584 96279.8732177789 571951.701431416
 -2064.21788969957 96461.0776199438 571918.700086738
 -2882.68964086828 96716.4431306565 571872.030902534
 -4542.31255189342 97007.9850297127 571811.873116637
 -6597.34246943004 97482.4100790741 571711.163785977
 -10048.5449578276 98032.5094327166 571566.841094334
 -14831.1401904892 98909.8102409122 571311.549610856
 -22273.4417576615 99986.4368101790 570882.305073709
 -33049.0514173216 101603.917605859 570074.033900473
 -49288.6472027744 103663.793304351 568528.316985771
 -73106.5867616492 106538.832697290 565424.534398323
 -108311.226210813 110097.294019447 559059.267096348
 -159399.488621258 114339.182609738 545818.975803717
 -231997.364144026 118198.855569880 518272.373923398
 -0.000000000000000 0.000000000000000 -0.000000000000000
 0.000000000000000 0.000000000000000 -0.000000000000000
 -0.000000000000000 0.000000000000000 0.000000000000000
 0.000000000000000 0.000000000000000 -0.000000000000000
 0.000000000000000 0.000000000000000 0.000000000000000
 -0.000000000000000 0.000000000000000 0.000000000000000
 0.000000000000000 0.000000000000000 0.000000000000000
 0.000000000000000 0.000000000000000 0.000000000000000
 -0.000000000000000 -0.000000000000000 0.000000000000000
 -0.000000000000000 -0.000000000000000 0.000000000000000
 -0.000000000000000 -0.000000000000000 -0.000000000000000
 0.000000000000000 0.000000000000000 0.000000000000000
 -0.000000000000000 -0.000000000000000 0.000000000000000
 0.000000000000000 0.000000000000000 -0.000000000000000
 0.000000000000000 0.000000000000000 0.000000000000000
 0.000000000000000 0.000000000000000 -0.000000000000000
 -0.000000000000000 -0.000000000000000 0.000000000000000
 0.000000000000000 -0.000000000000000 -0.000000000000000
 0.000000000000000 -0.000000000000000 -0.000000000000000
 0.000000000000000 0.000000000000000 -0.000000000000000
 0.000000000000000 -0.000000000000000 0.000000000000000
 0.000000000000000 -0.000000000000000 0.000000000000000
 -0.000000000000000 0.000000000000000 -0.000000000000000
 0.000000000000000 0.000000000000000 0.000000000000000
 -0.000000000000000 0.000000000000000 -0.000000000000000
 2917.89018349014 -576854.347980184 -60254.0217183329
 27666.1323082014 -576772.363343587 -54481.4280847857
 61909.4356064000 -575529.098232303 -36516.8299665915
 101491.509261591 -571033.631411044 -4479.43582613184
 142883.743689158 -560546.156067991 42098.0130976659
 182600.924907970 -540876.999968902 102513.282687635
 216691.076485197 -508995.809119276 174264.866426658
 240924.982131760 -463100.132324622 252771.478663493
 251844.039893503 -403874.836421029 331450.895421941
 247875.106748363 -335095.200222750 403322.623023013
 230457.471838988 -262835.906844352 462824.631741753
 203206.394071669 -193741.687465351 507514.847020723
 171202.001411618 -132655.642033403 538044.938038973
 138655.114505938 -82340.3444628836 557130.888476917
 108909.234895122 -42595.8968879192 568088.345350328
 83336.1146077380 -12746.7604394173 573840.232207873
 62566.0229227609 9666.56758360837 576534.517827666
 46201.1134829821 25613.7305577328 577589.295191530
 33674.3544189184 37543.4530915405 577803.190528083
 24332.1118117422 45660.2181825195 577687.712185663
 17344.7511810151 51940.6313712746 577409.153390576
 12394.9124377896 55958.7616504104 577161.141398320
 8641.40148888253 59309.0616328927 576894.930978366
 6183.40328876865 61241.0673904834 576724.628560843
 4172.97741075964 63077.3130818123 576544.741398192
 3052.16136236755 63964.3186016687 576454.031347551
 1931.17800597880 65007.3327661081 576342.187626540
 1500.83521427277 65384.0829803649 576300.849545163
 811.317193228151 66000.8511732893 576231.923281601
 720.385751942636 66144.3206437988 576215.593238276
 222.128806369416 66525.3142163481 576172.138537790
 273.153269210607 66582.6165366970 576165.497545991
 -170.070945997723 66833.1565831071 576136.529181245
 -111.693781174874 66888.4379340729 576130.128005157
 -609.410358411641 67077.9362903508 576107.784257463
 -685.212027562175 67190.5736930323 576094.573218042
 -1392.90683131468 67383.1542420416 576070.803230777
 -1834.87242334764 67615.0717691094 576042.390204791
 -3062.36755230176 67895.3370709337 576004.205808428
 -4341.26089524048 68338.7466421357 575943.546852660
 -6765.20302264451 68842.4651922598 575860.180090892
 -9899.84483485011 69656.3837083810 575716.928082644
 -15017.9883718422 70612.7439775660 575489.617989084
 -22244.9206619109 72070.1081232899 575074.832539072
 -33359.5553437457 73846.6271891372 574311.601589290
 -49568.8301010665 76356.0318071114 572811.214528036
 -73840.9257239852 79408.0135967823 569773.538403494
 -109390.490395286 83268.4589922228 563471.458326098
 -161271.679047850 87422.3264302759 550226.119316964
 -234757.528489935 91010.6185269375 522499.732184277
 -0.000000000000000 -0.000000000000000 0.000000000000000
 0.000000000000000 -0.000000000000000 -0.000000000000000
 0.000000000000000 0.000000000000000 0.000000000000000
 -0.000000000000000 0.000000000000000 0.000000000000000
 -0.000000000000000 -0.000000000000000 -0.000000000000000
 0.000000000000000 0.000000000000000 -0.000000000000000
 -0.000000000000000 -0.000000000000000 -0.000000000000000
 -0.000000000000000 0.000000000000000 0.000000000000000
 0.000000000000000 -0.000000000000000 0.000000000000000
 0.000000000000000 -0.000000000000000 0.000000000000000
 -0.000000000000000 -0.000000000000000 -0.000000000000000
 0.000000000000000 0.000000000000000 0.000000000000000
 -0.000000000000000 0.000000000000000 0.000000000000000
 -0.000000000000000 -0.000000000000000 -0.000000000000000
 0.000000000000000 -0.000000000000000 0.000000000000000
 -0.000000000000000 -0.000000000000000 0.000000000000000
 -0.000000000000000 -0.000000000000000 -0.000000000000000
 -0.000000000000000 -0.000000000000000 -0.000000000000000
 -0.000000000000000 0.000000000000000 -0.000000000000000
 -0.000000000000000 0.000000000000000 0.000000000000000
 0.000000000000000 0.000000000000000 0.000000000000000
 -0.000000000000000 0.000000000000000 -0.000000000000000
 -0.000000000000000 0.000000000000000 -0.000000000000000
 -0.000000000000000 -0.000000000000000 0.000000000000000
 -0.000000000000000 -0.000000000000000 0.000000000000000
 -114217.279117313 -492280.249671691 -284630.583272801
 -54967.0808661410 -497856.808382940 -292433.271649804
 5683.76126412766 -508014.735406012 -279801.221348751
 64895.5794238099 -519344.376889613 -249939.956718384
 122682.902098284 -529022.174878772 -203677.303642986
 178849.034707323 -533585.135235966 -140356.425714945
 231463.597650667 -528504.378623780 -59226.0478007957
 276180.893947183 -508582.133540653 38318.7586146999
 306782.609585642 -469738.676352972 147071.432963651
 317564.404646900 -411556.987735037 257242.482393019
 306249.276290696 -339151.919028322 357193.724176156
 276250.132546089 -261711.136964759 437713.542236109
 234723.236278152 -189016.592166135 495557.998862910
 190026.326692513 -127137.465915480 533034.764273720
 147978.610925124 -78650.2572498822 555262.521464575
 112063.202723483 -42085.9884178491 567512.650232792
 83000.3447492678 -15998.5018527631 573807.450901406
 60528.0802481641 2949.31701245876 576825.496169017
 43613.1552950386 15772.2609770724 578142.827049582
 31074.6193916062 25250.1507080216 578616.278650099
 22072.7766086266 31322.3290213035 578732.843579373
 15438.4911330561 36113.3640076926 578668.711726824
 10929.1082391112 38913.0213433337 578589.950969624
 7473.98553653699 41418.6391925954 578470.946433469
 5353.05880751899 42656.0233679744 578404.537008342
 3515.60978551555 44030.4081672433 578315.626318762
 2618.88676630278 44533.1547705869 578281.885898464
 1571.05933323399 45329.0110851272 578223.842924706
 1283.37651296975 45501.6816197630 578210.990828175
 602.779385435797 45988.3550021196 578173.596648283
 599.389995948457 46034.0763539500 578169.961642658
 68.4331096036504 46349.7961514310 578145.043837297
 162.233195697568 46377.0694639750 578142.837980653
 -351.091425744783 46603.8104051286 578124.520834858
 -304.568918765630 46681.1825749515 578118.304874683
 -930.406783587665 46885.5358575737 578101.099177787
 -1113.66357204788 47074.9331235758 578085.383334382
 -2071.34461087648 47336.7663021590 578061.363600403
 -2817.73094966749 47721.6346823505 578026.561652265
 -4569.46415384308 48162.7101914830 577978.782780439
 -6580.41819447346 48880.1166692083 577899.154083816
 -10146.8989114883 49699.0271801612 577777.679682961
 -14954.9939903092 50977.4796909981 577561.810301810
 -22596.1272344977 52485.1355974565 577178.244197855
 -33565.6631639848 54666.2830646854 576441.622154623
 -50235.5840156169 57268.9944261433 574975.345885394
 -74639.1262544976 60695.2089921026 571965.988881656
 -110804.762396356 64571.3255404646 565643.747024781
 -163193.545315687 68795.3634136177 552299.796071015
 -237357.783801123 72092.0315811594 524274.757595214
 0.000000000000000 -0.000000000000000 0.000000000000000
 0.000000000000000 -0.000000000000000 0.000000000000000
 0.000000000000000 -0.000000000000000 0.000000000000000
 0.000000000000000 -0.000000000000000 -0.000000000000000
 -0.000000000000000 0.000000000000000 -0.000000000000000
 0.000000000000000 0.000000000000000 -0.000000000000000
 -0.000000000000000 -0.000000000000000 -0.000000000000000
 0.000000000000000 -0.000000000000000 0.000000000000000
 0.000000000000000 -0.000000000000000 0.000000000000000
 -0.000000000000000 -0.000000000000000 0.000000000000000
 0.000000000000000 0.000000000000000 -0.000000000000000
 0.000000000000000 0.000000000000000 0.000000000000000
 0.000000000000000 -0.000000000000000 -0.000000000000000
 0.000000000000000 -0.000000000000000 0.000000000000000
 -0.000000000000000 0.000000000000000 0.000000000000000
 -0.000000000000000 0.000000000000000 0.000000000000000
 0.000000000000000 -0.000000000000000 0.000000000000000
 0.000000000000000 -0.000000000000000 -0.000000000000000
 0.000000000000000 -0.000000000000000 -0.000000000000000
 0.000000000000000 0.000000000000000 0.000000000000000
 0.000000000000000 -0.000000000000000 0.000000000000000
 -0.000000000000000 -0.000000000000000 -0.000000000000000
 -0.000000000000000 -0.000000000000000 0.000000000000000
 0.000000000000000 0.000000000000000 0.000000000000000
 -0.000000000000000 0.000000000000000 -0.000000000000000
 -232150.039805874 -321844.101850523 -422992.592278117
 -140148.719056555 -342997.913990952 -446218.295842587
 -57048.1673182875 -368770.603876238 -444019.986399688
 16173.1718792556 -395079.690419820 -424323.540154377
 83731.7221761505 -421059.438920974 -389997.368705188
 149512.992084927 -445504.791427885 -339957.859171706
 215129.219873127 -465509.347477245 -270962.112052755
 278763.557970961 -476008.229050466 -179184.387220565
 334097.033372457 -469833.446971217 -63527.1941680737
 370873.424999811 -440286.628038251 70714.8343674593
 379360.561353366 -385565.766663120 209343.268502093
 356649.041599474 -312697.867621498 333798.599025137
 310219.475772473 -234698.661017840 430209.734162170
 252806.786915678 -164163.600436491 495518.961071218
 196295.034758577 -107059.599861672 535169.600600210
 147112.733322858 -64763.6436997553 557282.257163287
 107701.371672244 -34233.8901580916 568883.516464101
 77513.1448128311 -13520.9146583891 574638.057604981
 55120.3942940742 1195.80297459394 577373.633090490
 38925.4642062708 10648.2142189180 578594.351657769
 27200.1027282022 17683.4468871951 579091.918539503
 19075.8286329729 21867.8546321721 579273.605212383
 13113.3259386776 25346.0085066626 579297.523329425
 9240.46296442192 27131.5072135501 579291.373283362
 6191.32408078428 28950.1266184215 579243.953507418
 4468.49788262065 29653.3588562689 579224.231913008
 2835.91865304443 30671.0081675901 579181.531839005
 2175.76048079122 30899.3479137312 579172.251031450
 1209.59321566997 31509.5304969303 579142.198749250
 1059.70105100398 31550.6384058522 579140.254385642
 389.875201483128 31941.0918015741 579119.689400949
 460.381297217730 31938.5650965633 579119.776996636
 -106.069208174116 32209.3519494427 579104.952833525
 6.49652589403128 32244.7659098687 579102.991728771
 -590.724194699401 32465.9855542406 579090.330455377
 -600.341890932781 32602.2910442924 579082.662672850
 -1395.80674559820 32848.2340490098 579067.392661157
 -1775.13427315212 33160.1493912387 579048.576019891
 -3089.24164940041 33537.7275102684 579021.309987360
 -4327.28202121762 34141.8082828619 578978.075195844
 -6856.43347036456 34821.8665213183 578913.142821994
 -10005.5424547449 35910.3210455882 578800.775710079
 -15292.7559918758 37160.0916027661 578606.307610146
 -22660.0794554383 39025.8945634975 578241.731763275
 -34106.0360080855 41212.2670661726 577527.771930564
 -50721.3275885253 44200.8559323733 576084.743125960
 -75662.9826092049 47635.7850924621 573067.138336604
 -112075.285541550 51767.8668341385 566709.112626772
 -165062.486426204 55875.9303766729 553201.822104140
 -239602.923531294 59069.6210287774 524882.100006061
 257185.181306025 272770.413146299 442551.787058401
 188373.625326053 270118.636236147 477442.456888203
 134916.962455467 267539.612052289 496608.466726758
 95320.7474256514 265261.579848576 506902.603432309
 66687.3610198703 263395.353511125 512421.392633988
 46200.2340688032 261923.819076779 515423.565014467
 31553.5045318201 260777.011507472 517107.074618973
 20976.2233301744 259878.054866653 518095.931902121
 13132.3479698155 259160.361247519 518713.262405016
 6997.94041026048 258571.397085317 519126.055442570
 1746.96763103262 258071.211229825 519419.096721008
 -3353.67731867640 257631.962862767 519629.218347006