# OOMMF OVF 2.0
#
# Segment count: 1
#
# Begin: Segment
# Begin: Header
#
# Title: Oxs_MinDriver::Magnetization
# Desc: Oxs vector field output
# Desc:  MIF source file: C:/Users/Victor H. González/Documents/GitHub/Intro-to-magnetism-in-python/disk_with_vortex/drive-5/disk_with_vortex.mif
# Desc:  Iteration: 1067, State id: 2167
# Desc:  Stage: 0, Stage iteration: 1067
# Desc:  Stage simulation time: -1 s
# Desc:  Total simulation time: -2 s
# meshunit: m
# meshtype: rectangular
# xbase: -4.7499999999999995e-08
# ybase: -4.7499999999999995e-08
# zbase: 0
# xnodes: 20
# ynodes: 20
# znodes: 1
# xstepsize: 5.0000000000000001e-09
# ystepsize: 5.0000000000000001e-09
# zstepsize: 5.0000000000000001e-09
# xmin: -4.9999999999999998e-08
# ymin: -4.9999999999999998e-08
# zmin: -2.5000000000000001e-09
# xmax: 4.9999999999999998e-08
# ymax: 4.9999999999999998e-08
# zmax: 2.5000000000000001e-09
# valuedim: 3
# valuelabels: Magnetization_x Magnetization_y Magnetization_z
# valueunits: A/m A/m A/m
#
# End: Header
#
# Begin: Data Text
 0.000000000000000 -0.000000000000000 -0.000000000000000
 -0.000000000000000 0.000000000000000 0.000000000000000
 0.000000000000000 0.000000000000000 -0.000000000000000
 0.000000000000000 0.000000000000000 0.000000000000000
 0.000000000000000 0.000000000000000 0.000000000000000
 0.000000000000000 -0.000000000000000 0.000000000000000
 -0.000000000000000 -0.000000000000000 0.000000000000000
 790526.772469055 -122748.183956948 -552.580247845980
 796150.803969798 -78381.2665319646 -523.827345360649
 799560.903712599 -26497.1371649851 -512.812199457902
 799560.903712354 26497.1371723833 -512.812199458046
 796150.803969051 78381.2665395643 -523.827345361017
 790526.772467809 122748.183964971 -552.580247846420
 -0.000000000000000 -0.000000000000000 -0.000000000000000
 -0.000000000000000 0.000000000000000 -0.000000000000000
 -0.000000000000000 -0.000000000000000 -0.000000000000000
 0.000000000000000 -0.000000000000000 -0.000000000000000
 0.000000000000000 0.000000000000000 0.000000000000000
 0.000000000000000 0.000000000000000 -0.000000000000000
 0.000000000000000 0.000000000000000 0.000000000000000
 0.000000000000000 0.000000000000000 -0.000000000000000
 -0.000000000000000 0.000000000000000 -0.000000000000000
 0.000000000000000 -0.000000000000000 -0.000000000000000
 -0.000000000000000 -0.000000000000000 0.000000000000000
 0.000000000000000 -0.000000000000000 -0.000000000000000
 754492.228006987 -265972.022755891 -600.822929330211
 768399.225891755 -222625.919668763 -574.056258728069
 783615.620620635 -161078.355553033 -567.883498916332
 794280.739781621 -95487.1126014000 -563.683429760342
 799375.863089056 -31589.7598702978 -562.656168383687
 799375.863088742 31589.7598782550 -562.656168383825
 794280.739780660 95487.1126093912 -563.683429760721
 783615.620619010 161078.355560938 -567.883498916851
 768399.225889591 222625.919676232 -574.056258728975
 754492.228004301 265972.022763509 -600.822929331353
 -0.000000000000000 -0.000000000000000 -0.000000000000000
 0.000000000000000 -0.000000000000000 0.000000000000000
 0.000000000000000 -0.000000000000000 0.000000000000000
 0.000000000000000 0.000000000000000 -0.000000000000000
 -0.000000000000000 -0.000000000000000 0.000000000000000
 0.000000000000000 -0.000000000000000 0.000000000000000
 -0.000000000000000 -0.000000000000000 -0.000000000000000
 -0.000000000000000 -0.000000000000000 -0.000000000000000
 692107.695730330 -401231.248282212 -650.317423025660
 715875.044892471 -357102.971309195 -622.882289597545
 739680.265705912 -304750.250261398 -624.092018982083
 761310.128429115 -245777.295554604 -639.797709264067
 779456.812592505 -180129.502204597 -663.127933511952
 792534.103184155 -109037.741917568 -682.735384392492
 799171.393517006 -36395.0955026854 -693.402796666063
 799171.393516622 36395.0955111117 -693.402796666228
 792534.103183005 109037.741925927 -682.735384392956
 779456.812590622 180129.502212748 -663.127933512715
 761310.128426601 245777.295562393 -639.797709265134
 739680.265702832 304750.250268874 -624.092018983451
 715875.044888917 357102.971316320 -622.882289599426
 692107.695726127 401231.248289461 -650.317423027656
 0.000000000000000 0.000000000000000 -0.000000000000000
 0.000000000000000 -0.000000000000000 0.000000000000000
 -0.000000000000000 -0.000000000000000 -0.000000000000000
 -0.000000000000000 -0.000000000000000 -0.000000000000000
 0.000000000000000 0.000000000000000 0.000000000000000
 631515.115885101 -491109.108042216 -708.806466158544
 664034.514620510 -446158.838573692 -673.910437505214
 696788.094427809 -393046.916165674 -687.863589011767
 726286.638133212 -335420.903065816 -732.840821711204
 752678.823701880 -271060.811511766 -790.451350234495
 774711.311848319 -199553.674132318 -845.242301381415
 790642.502166109 -121998.563612696 -885.576057524990
 798947.742635008 -41008.3346766432 -906.104560673640
 798947.742634561 41008.3346853532 -906.104560673832
 790642.502164782 121998.563621297 -885.576057525575
 774711.311846166 199553.674140678 -845.242301382407
 752678.823698997 271060.811519772 -790.451350235889
 726286.638129694 335420.903073433 -732.840821712926
 696788.094423730 393046.916172905 -687.863589013771
 664034.514615867 446158.838580603 -673.910437507225
 631515.115879918 491109.108048880 -708.806466160607
 0.000000000000000 0.000000000000000 -0.000000000000000
 0.000000000000000 0.000000000000000 -0.000000000000000
 0.000000000000000 0.000000000000000 -0.000000000000000
 -0.000000000000000 0.000000000000000 0.000000000000000
 594774.184106861 -535016.936910844 -739.688147901703
 633521.809124879 -488517.699299572 -758.178207944069
 672949.153663833 -432595.367981255 -827.154334811648
 709182.271666327 -370215.684174896 -923.441986438490
 741480.959832238 -300341.373791727 -1022.44567658422
 768505.322428378 -222257.401528948 -1103.11597461111
 788227.153060665 -136735.600332655 -1153.59418640427
 798665.974988585 -46165.7840419103 -1175.06566999277
 798665.974988078 46165.7840506796 -1175.06566999287
 788227.153059166 136735.600341300 -1153.59418640473
 768505.322425951 222257.401537341 -1103.11597461209
 741480.959828985 300341.373799758 -1022.44567658583
 709182.271662363 370215.684182490 -923.441986440571
 672949.153659266 432595.367988359 -827.154334813950
 633521.809119815 488517.699306138 -758.178207946292
 594774.184101446 535016.936916864 -739.688147903643
 -0.000000000000000 -0.000000000000000 0.000000000000000
 0.000000000000000 -0.000000000000000 -0.000000000000000
 -0.000000000000000 -0.000000000000000 -0.000000000000000
 518017.513593315 -609636.878015859 -855.905179293758
 557063.488504697 -574177.311365931 -827.579342646190
 600179.732560370 -528945.626204496 -901.744363695310
 644744.480206359 -473606.893545852 -1032.29321410565
 687459.570477317 -409142.942058658 -1179.79774846381
 726580.687307666 -334781.722047100 -1305.14930143913
 760003.068995012 -249786.789771083 -1376.50790735629
 784881.292508961 -154788.340855695 -1387.87773368630
 798274.672023990 -52494.4485946533 -1371.44877237782
 798274.672023426 52494.4486032281 -1371.44877237740
 784881.292507295 154788.340864141 -1387.87773368560
 760003.068992321 249786.789779271 -1376.50790735632
 726580.687304067 334781.722054912 -1305.14930144030
 687459.570472955 409142.942065988 -1179.79774846602
 644744.480201402 473606.893552600 -1032.29321410838
 600179.732555017 528945.626210569 -901.744363698133
 557063.488499182 574177.311371282 -827.579342648978
 518017.513587647 609636.878020675 -855.905179296982
 -0.000000000000000 0.000000000000000 0.000000000000000
 -0.000000000000000 0.000000000000000 0.000000000000000
 474742.119958511 -643909.250942604 -892.237542806804
 515369.870963777 -611876.618691875 -948.472971758283
 561632.078110475 -569708.886615738 -1092.40485475877
 610435.658872654 -517075.106367397 -1280.91836353606
 659452.055460852 -452902.726784965 -1451.41971913784
 706336.411041540 -375614.880274916 -1528.44791126687
 747952.637806561 -283839.291300305 -1452.00287458543
 779995.484680407 -177779.369522495 -1240.82648300877
 797694.725256091 -60679.8208146873 -1041.46267704490
 797694.725255474 60679.8208227891 -1041.46267704242
 779995.484678589 177779.369530473 -1240.82648300360
 747952.637803630 283839.291308029 -1452.00287458122
 706336.411037637 375614.880282254 -1528.44791126546
 659452.055456162 452902.726791795 -1451.41971913898
 610435.658867392 517075.106373609 -1280.91836353877
 561632.078104883 569708.886621250 -1092.40485476209
 515369.870958088 611876.618696667 -948.472971761689
 474742.119952863 643909.250946768 -892.237542810068
 -0.000000000000000 -0.000000000000000 -0.000000000000000
 381503.190481770 -703174.430319797 -1017.93745346756
 424500.486995060 -678084.328070866 -990.235144037171
 466673.697406290 -649780.300337841 -1105.18867492139
 514673.897092133 -612461.485263563 -1307.18045678228
 567076.360523824 -564289.025705315 -1515.52090079526
 622301.393415671 -502730.952942822 -1601.46998588930
 678001.665471062 -424631.388829375 -1387.52992861496
 730176.239941070 -326867.150022667 -724.473313308995
 772455.466615636 -208116.452533592 307.051221954705
 796772.438824389 -71779.3702514236 1184.37162400056
 796772.438823729 71779.3702587518 1184.37162401002
 772455.466613689 208116.452540820 307.051221974438
 730176.239937937 326867.150029665 -724.473313291299
 678001.665466912 424631.388836002 -1387.52992860489
 622301.393410722 502730.952948948 -1601.46998588629
 567076.360518329 564289.025710837 -1515.52090079662
 514673.897086350 612461.485268423 -1307.18045678567
 466673.697400453 649780.300342034 -1105.18867492542
 424500.486989313 678084.328074464 -990.235144041393
 381503.190475920 703174.430322971 -1017.93745347226
 326700.892611130 -730250.249775171 -1048.55633614021
 364263.035544563 -712257.840607216 -1099.74060857343
 407437.004355078 -688471.837640137 -1271.32158525776
 456177.986049671 -657190.542712939 -1495.19642109157
 511014.026016973 -615517.714664793 -1614.97608506042
 571776.113560484 -559526.852276222 -1333.24548790926
 637025.998184206 -483939.916253040 -187.335039224746
 702662.944383233 -382438.991759919 2281.26551329840
 759967.022514200 -249829.917897507 5927.63141786140
 795120.938467358 -87748.6857009887 9102.82200954330
 795120.938466670 87748.6857072153 9102.82200957580
 759967.022512163 249829.917903700 5927.63141792554
 702662.944379950 382438.991765951 2281.26551335451
 637025.998179867 483939.916258751 -187.335039190859
 571776.113555344 559526.852281474 -1333.24548789451
 511014.026011310 615517.714669494 -1614.97608505722
 456177.986043751 657190.542717049 -1495.19642109379
 407437.004349127 688471.837643659 -1271.32158526185
 364263.035538726 712257.840610202 -1099.74060857789
 326700.892605437 730250.249777719 -1048.55633614467
 265709.050034635 -754584.272709457 -1129.65004874966
 297611.544047592 -742580.557486951 -1218.39729870875
 337422.253073719 -725357.996664915 -1414.14458844299
 383845.755209846 -701897.383971358 -1580.69021279681
 438241.134672539 -669285.274685535 -1388.87365599004
 502084.676829343 -622824.980584984 -144.403907090153
 576024.929659968 -555143.138794247 3372.81186852368
 657725.683715771 -455283.508450400 10670.1412229057
 737214.755487725 -309889.596430904 21973.6732265036
 791359.143634818 -112625.393905817 32653.1228694446
 791359.143634138 112625.393910560 32653.1228695533
 737214.755485664 309889.596435793 21973.6732266975
 657725.683712393 455283.508455276 10670.1412230621
 576024.929655493 555143.138798890 3372.81186861466
 502084.676824069 622824.980589236 -144.403907048462
 438241.134666770 669285.274689313 -1388.87365597594
 383845.755203855 701897.383974633 -1580.69021279550
 337422.253067737 725357.996667697 -1414.14458844642
 297611.544041793 742580.557489275 -1218.39729871333
 265709.050029112 754584.272711401 -1129.65004875422
 204544.402381002 -773408.083893218 -1234.18929679985
 226453.842945093 -767278.881011438 -1332.57991682187
 257223.090729492 -757518.329576419 -1503.97849713086
 296234.258949539 -743130.560234061 -1494.74774759718
 344892.902084086 -721836.866212584 -651.665875035064
 406041.967023593 -689292.033005108 2532.63722186790
 483547.187164402 -637227.917296311 11076.9672564525
 580260.939153039 -549922.895026531 29699.3605801731
 690171.593623362 -399820.224253136 61700.5642888323
 778819.752764776 -155404.774910738 96380.2294993977
 778819.752764183 155404.774913479 96380.2294997652
 690171.593621362 399820.224256503 61700.5642893906
 580260.939149591 549922.895030150 29699.3605805680
 483547.187159799 637227.917299801 11076.9672566628
 406041.967018207 689292.033008280 2532.63722196127
 344892.902078251 721836.866215372 -651.665875001085
 296234.258943532 743130.560236456 -1494.74774758908
 257223.090723534 757518.329578442 -1503.97849713246
 226453.842939358 767278.881013131 -1332.57991682628
 204544.402375586 773408.083894650 -1234.18929680478
 147302.180206009 -786320.689500544 -1356.82347616292
 150445.791905456 -785725.135786670 -1440.37875589847
 166646.603586127 -782449.065772076 -1539.15093942317
 192835.838039709 -776410.187678288 -1249.01436669503
 228568.699917804 -766652.489083690 557.135231864208
 276838.632136129 -750543.315991519 6715.84525221878
 344317.793820074 -721722.039472037 23718.2334755442
 441865.043009639 -663788.724511076 64341.3784282592
 578714.058876701 -532847.148076129 145478.365558557
 721552.424419879 -235058.639464998 253198.607473777
 721552.424419491 235058.639464844 253198.607475025
 578714.058874719 532847.148077873 145478.365560055
 441865.043005973 663788.724513431 64341.3784291399
 344317.793815243 721722.039474328 23718.2334759589
 276838.632130601 750543.315993556 6715.84525239045
 228568.699911918 766652.489085445 557.135231926240
 192835.838033716 776410.187679776 -1249.01436667772
 166646.603580210 782449.065773336 -1539.15093942209
 150445.791899735 785725.135787765 -1440.37875590238
 147302.180200544 786320.689501568 -1356.82347616813
 105289.750289725 -793039.598883715 -1504.35577035815
 66413.7704245337 -797236.971150702 -1556.57587466619
 66039.2118620612 -797268.074069752 -1562.23101559092
 75870.0902515987 -796393.569306756 -1006.06762190109
 91508.2067135552 -794747.377710964 1689.29737311052
 113793.157246173 -791792.419113524 10764.8687080481
 147382.408027480 -785433.145205689 37056.7162107039
 203388.876944250 -766356.774213125 106443.690996747
 303601.476115127 -688950.317188629 270506.199829882
 450850.873487154 -365365.954914608 550673.413980744
 450850.873486471 365365.954909918 550673.413984415
 303601.476112242 688950.317188613 270506.199833160
 203388.876939801 766356.774214089 106443.690998308
 147382.408022191 785433.145206651 37056.7162113510
 113793.157240445 791792.419114343 10764.8687082972
 91508.2067076381 794747.377711646 1689.29737319793
 75870.0902456694 796393.569307321 -1006.06762187563
 66039.2118562360 797268.074070235 -1562.23101558738
 66413.7704188268 797236.971151177 -1556.57587466932
 105289.750283984 793039.598884477 -1504.35577036373
 0.000000000000000 0.000000000000000 -0.000000000000000
 -29516.3512248524 -799453.537246800 -1681.30721473724
 -39612.6403365741 -799016.999685099 -1634.91277703346
 -47249.5826659737 -798602.816137475 -1009.45291439861
 -55810.8442245224 -798048.713633190 1843.99982530520
 -68174.7107744075 -797008.103580977 11414.5362183545
 -88156.8877144301 -794152.276719152 39376.7003479628
 -123956.553737998 -781994.336077078 114540.958302117
 -192644.598630443 -716946.781580153 298119.725949786
 -301190.271045104 -394394.075937449 627485.245637874
 -301190.271048653 394394.075927694 627485.245642301
 -192644.598636048 716946.781577102 298119.725953501
 -123956.553743746 781994.336075918 114540.958303817
 -88156.8877202392 794152.276718473 39376.7003486522
 -68174.7107802783 797008.103580472 11414.5362186169
 -55810.8442303901 798048.713632780 1843.99982539697
 -47249.5826717441 798602.816137133 -1009.45291437172
 -39612.6403421647 799016.999684822 -1634.91277702909
 -29516.3512302068 799453.537246602 -1681.30721473924
 0.000000000000000 -0.000000000000000 0.000000000000000
 -0.000000000000000 -0.000000000000000 -0.000000000000000
 -88457.8332424134 -795092.317980983 -1848.68214801911
 -138117.761843395 -787984.955551541 -1787.08919976575
 -165339.717392881 -782726.672219649 -1316.98458461892
 -196932.388301657 -775381.806203227 830.088444587912
 -239262.227977357 -763341.863473022 7923.74487504899
 -299903.289536394 -741143.214130862 27654.1691798001
 -391742.863413133 -693371.622285505 75982.3819977176
 -529282.827945922 -573281.774048644 176656.999819443
 -684777.955765135 -263903.723154306 318487.011043495
 -684777.955768129 263903.723144442 318487.011045229
 -529282.827951376 573281.774043019 176656.999821359
 -391742.863418894 693371.622282133 75982.3819987818
 -299903.289542148 741143.214128516 27654.1691802849
 -239262.227983087 763341.863471224 7923.74487524624
 -196932.388307327 775381.806201787 830.088444659209
 -165339.717398419 782726.672218480 -1316.98458459798
 -138117.761848771 787984.955550599 -1787.08919976260
 -88457.8332478457 795092.317980379 -1848.68214802142
 -0.000000000000000 0.000000000000000 0.000000000000000
 0.000000000000000 -0.000000000000000 -0.000000000000000
 0.000000000000000 0.000000000000000 -0.000000000000000
 -233481.953449882 -765168.162584016 -1964.78523713828
 -271490.106559106 -752522.509822810 -1730.39027529188
 -319833.947276009 -733284.367900688 -531.001257134935
 -379758.979647979 -704110.178151375 3460.40465345624
 -455822.973139028 -657289.018517370 14020.1032510558
 -553939.977131029 -575979.778983976 37387.1092443189
 -671237.856843187 -428050.416740919 78819.9230429133
 -771427.416838249 -170615.953986375 125658.015246087
 -771427.416840040 170615.953977887 125658.015246615
 -671237.856847193 428050.416734498 78819.9230436654
 -553939.977135867 575979.778979289 37387.1092448264
 -455822.973144176 657289.018513793 14020.1032513188
 -379758.979653264 704110.178148524 3460.40465357213
 -319833.947281334 733284.367898365 -531.001257091359
 -271490.106564352 752522.509820917 -1730.39027527940
 -233481.953454924 765168.162582478 -1964.78523713659
 0.000000000000000 -0.000000000000000 0.000000000000000
 -0.000000000000000 0.000000000000000 0.000000000000000
 -0.000000000000000 0.000000000000000 -0.000000000000000
 -0.000000000000000 -0.000000000000000 0.000000000000000
 -297455.214802278 -742640.944820878 -2195.96504628667
 -359515.767739568 -714663.583837062 -2091.57447755804
 -419434.154561631 -681228.703699771 -1563.08755367367
 -486527.358984887 -635052.025065360 233.280039164103
 -561154.014771868 -570159.949123481 4878.94670224911
 -645338.164605176 -472578.658888075 14424.4399395789
 -730016.951737227 -325895.786485765 29448.0309547401
 -789738.804367793 -119899.587541524 44008.0649779246
 -789738.804368897 119899.587534194 44008.0649780818
 -730016.951740042 325895.786479437 29448.0309550091
 -645338.164608971 472578.658882887 14424.4399397896
 -561154.014776197 570159.949119219 4878.94670237070
 -486527.358989547 635052.025061790 233.280039221858
 -419434.154566537 681228.703696750 -1563.08755365077
 -359515.767744601 714663.583834531 -2091.57447755150
 -297455.214807437 742640.944818812 -2195.96504628641
 -0.000000000000000 -0.000000000000000 -0.000000000000000
 0.000000000000000 0.000000000000000 0.000000000000000
 0.000000000000000 -0.000000000000000 -0.000000000000000
 -0.000000000000000 0.000000000000000 0.000000000000000
 0.000000000000000 0.000000000000000 -0.000000000000000
 -429100.257560281 -675179.530553403 -2360.18715068017
 -492147.582270753 -630703.036042998 -2106.55908927314
 -564047.513205906 -567316.798551723 -1432.80398457335
 -630200.885715916 -492794.828934653 316.572488613874
 -698038.699238778 -390804.354620933 3732.39525654647
 -757720.056182502 -256483.785614703 8739.80409026351
 -794763.547439986 -90433.9930095915 13137.6013393371
 -794763.547440717 90433.9930031554 13137.6013393849
 -757720.056184510 256483.785608768 8739.80409035614
 -698038.699241699 390804.354615714 3732.39525662792
 -630200.885719447 492794.828930138 316.572488666322
 -564047.513209887 567316.798547765 -1432.80398454520
 -492147.582275238 630703.036039499 -2106.55908925928
 -429100.257565154 675179.530550307 -2360.18715067474
 -0.000000000000000 0.000000000000000 0.000000000000000
 0.000000000000000 0.000000000000000 0.000000000000000
 0.000000000000000 -0.000000000000000 -0.000000000000000
 -0.000000000000000 0.000000000000000 0.000000000000000
 -0.000000000000000 0.000000000000000 0.000000000000000
 -0.000000000000000 0.000000000000000 -0.000000000000000
 -0.000000000000000 -0.000000000000000 0.000000000000000
 -0.000000000000000 0.000000000000000 0.000000000000000
 -622715.454316629 -502216.456117134 -2023.40316804443
 -673487.639670287 -431755.183598733 -1364.05533920644
 -730629.360030531 -325853.673421348 -348.968752960668
 -772939.031999767 -206310.003843896 1197.96710961316
 -796836.834071211 -71026.9640685305 2496.04538758945
 -796836.834071719 71026.9640628301 2496.04538760480
 -772939.032001230 206310.003838412 1197.96710964607
 -730629.360032794 325853.673416274 -348.968752927526
 -673487.639673185 431755.183594214 -1364.05533917907
 -622715.454320071 502216.456112866 -2023.40316802407
 0.000000000000000 0.000000000000000 -0.000000000000000
 -0.000000000000000 0.000000000000000 -0.000000000000000
 -0.000000000000000 0.000000000000000 0.000000000000000
 0.000000000000000 -0.000000000000000 0.000000000000000
 0.000000000000000 0.000000000000000 -0.000000000000000
 -0.000000000000000 -0.000000000000000 0.000000000000000
 -0.000000000000000 0.000000000000000 -0.000000000000000
 -0.000000000000000 -0.000000000000000 -0.000000000000000
 -0.000000000000000 0.000000000000000 -0.000000000000000
 0.000000000000000 -0.000000000000000 0.000000000000000
 0.000000000000000 -0.000000000000000 0.000000000000000
 0.000000000000000 -0.000000000000000 0.000000000000000
 -758891.533478435 -253143.053566643 -1494.94003399997
 -782431.892866408 -166731.502121283 -969.136662641122
 -797923.333356242 -57602.9270488916 -506.834355606900
 -797923.333356611 57602.9270437782 -506.834355600217
 -782431.892867498 166731.502116167 -969.136662625010
 -758891.533480162 253143.053561464 -1494.94003398103
 0.000000000000000 0.000000000000000 0.000000000000000
 -0.000000000000000 -0.000000000000000 -0.000000000000000
 0.000000000000000 0.000000000000000 -0.000000000000000
 -0.000000000000000 0.000000000000000 0.000000000000000
 0.000000000000000 0.000000000000000 -0.000000000000000
 -0.000000000000000 0.000000000000000 0.000000000000000
 -0.000000000000000 0.000000000000000 0.000000000000000
# End: Data Text
# End: Segment
