# ODT 1.0
# Table Start
# Title: mmArchive Data Table, Fri Apr 16 16:26:52 CEST 2021
# Columns: {Oxs_CGEvolve:evolver:Max mxHxm} {Oxs_CGEvolve:evolver:Total energy} {Oxs_CGEvolve:evolver:Delta E} {Oxs_CGEvolve:evolver:Bracket count} {Oxs_CGEvolve:evolver:Line min count} {Oxs_CGEvolve:evolver:Conjugate cycle count} {Oxs_CGEvolve:evolver:Cycle count} {Oxs_CGEvolve:evolver:Cycle sub count} {Oxs_CGEvolve:evolver:Energy calc count} Oxs_UniformExchange:exchange:Energy {Oxs_UniformExchange:exchange:Max Spin Ang} {Oxs_UniformExchange:exchange:Stage Max Spin Ang} {Oxs_UniformExchange:exchange:Run Max Spin Ang} Oxs_Demag:demag:Energy Oxs_MinDriver::Iteration {Oxs_MinDriver::Stage iteration} Oxs_MinDriver::Stage Oxs_MinDriver::mx    Oxs_MinDriver::my    Oxs_MinDriver::mz   
# Units:                 A/m                                 J                                J                                 {}                                   {}                                        {}                                      {}                                   {}                                      {}                                     J                                      deg                                            deg                                              deg                                 J                       {}                           {}                         {}                 {}                   {}                   {}           
                  0.059157674384999998               1.7655116584499999e-18              -3.8518598887700003e-33               39                                   30                                        3                                       33                                   30                                      70                                    1.3656775580600001e-18                     57.0262565353                                  57.6866437332                                    57.6866437332                       3.9983410039000002e-19     63                           63                         0                   -9.3132257461499998e-17  4.8021320253600001e-17  0.022938023808900001
# Table End
