# ODT 1.0
# Table Start
# Title: mmArchive Data Table, Fri Apr 16 16:37:49 CEST 2021
# Columns: {Anv_SpinTEvolve:evolver:Total energy} {Anv_SpinTEvolve:evolver:Energy calc count} {Anv_SpinTEvolve:evolver:Max dm/dt} Anv_SpinTEvolve:evolver:dE/dt {Anv_SpinTEvolve:evolver:Delta E} {Anv_SpinTEvolve:evolver:average u} Oxs_UniformExchange:exchange:Energy {Oxs_UniformExchange:exchange:Max Spin Ang} {Oxs_UniformExchange:exchange:Stage Max Spin Ang} {Oxs_UniformExchange:exchange:Run Max Spin Ang} Oxs_DMExchange6Ngbr:dmi:Energy Oxs_UniaxialAnisotropy:uniaxialanisotropy:Energy Oxs_TimeDriver::Iteration {Oxs_TimeDriver::Stage iteration} Oxs_TimeDriver::Stage Oxs_TimeDriver::mx   Oxs_TimeDriver::my   Oxs_TimeDriver::mz   {Oxs_TimeDriver::Last time step} {Oxs_TimeDriver::Simulation time}
# Units:                     J                                        {}                                    deg/ns                             J/s                              J                                 m/s                                  J                                      deg                                            deg                                              deg                                     J                                       J                                    {}                            {}                          {}                   {}                   {}                   {}                          s                                 s                
                    -1.5448394755600001e-18                      289                                     6436.3550639699997               3.71549503944e-09               1.87663954602e-22                  400                                 1.3765576958e-18                        28.537505909099998                             28.537505909099998                               28.537505909099998                     -4.4563277817000002e-18                     1.5349306103400001e-18                  45                            45                          0                     0.0042304069231800003  0.0026552093534599999  0.97812657550399995        5.0344959172199999e-14              7.9999999999999998e-12       
                    -1.52818792715e-18                        566                                     5952.4293109                     1.93764662411e-09               1.11369757993e-22                  400                                 1.42503741349e-18                       27.782232986899999                             28.6707378744                                    28.6707378744                          -4.5135907455600003e-18                     1.5603654049199999e-18                  89                            43                          1                     0.00216211798841     0.0035517957246700002  0.97866710758999997        5.8732525384400003e-14              1.6e-11                   
                    -1.50130203088e-18                        843                                     5721.1699817999997               4.3235756932500002e-09             3.9164922715799998e-22                400                                 1.49076736306e-18                       26.3478255972                                  27.782232986899999                               28.6707378744                          -4.5806205802999998e-18                     1.5885511863600001e-18                  133                           43                          2                     0.0027576636835599999  0.0025289676788199998  0.97929389471799999        9.1703607807899997e-14              2.4000000000000001e-11       
                    -1.46534497354e-18                        1120                                    5748.7221009799996               4.2630567222000004e-09             3.60832229309e-22                  400                                 1.5604618731600001e-18                     27.5843285258                                  27.5843285258                                    28.6707378744                          -4.6422566502500002e-18                     1.61644980356e-18                    177                           43                          3                     0.0033664281854699999  0.0032153193600300001  0.97993417012100004        8.5985737902799997e-14              3.1999999999999999e-11       
                    -1.4298167911500001e-18                      1397                                    5370.9324647200001               4.5785946543600002e-09             4.8871860383000003e-22                400                                 1.6395943565e-18                        28.0850710894                                  28.0850710894                                    28.6707378744                          -4.7113614730799996e-18                     1.64195032543e-18                    221                           43                          4                     0.0032662774515800001  0.00337488122545     0.98026052659499996        1.0811701299599999e-13              3.9999999999999998e-11       
                    -1.39063207017e-18                        1674                                    4669.16455236                    4.9197861602200001e-09             4.4466057003300005e-22                400                                 1.72756313672e-18                       28.218976465800001                             28.224084467000001                               28.6707378744                          -4.80118023447e-18                       1.6829850275699999e-18                  265                           43                          5                     0.00372288620002     0.00344581497557     0.97986505419400005        9.15900887178e-14                4.8000000000000002e-11       
                    -1.35141386905e-18                        1945                                    4077.1572817800002               4.6158704046899997e-09             4.9709468814600001e-22                400                                 1.81382822107e-18                       28.1364644097                                  28.218976465800001                               28.6707378744                          -4.9012042304400001e-18                     1.7359621403200001e-18                  309                           43                          6                     0.00408663836969     0.0038468868056700002  0.97862744163500004        1.08793715009e-13                5.6e-11                   
                    -1.3164662542400001e-18                      2222                                    4241.1100527199997               3.9236076584700002e-09             3.50401308645e-22                  400                                 1.88880963962e-18                       27.733744216800002                             28.1364644097                                    28.6707378744                          -5.0063305324100004e-18                     1.8010546385499999e-18                  353                           43                          7                     0.0043151541462700003  0.0041427268597499997  0.97658147386799998        9.0645020760699995e-14              6.3999999999999999e-11       
                    -1.2868434904200001e-18                      2499                                    4172.20884131                    3.3205570193e-09                3.2203153160000001e-22                400                                 1.9508389679499999e-18                     29.422491535199999                             29.422491535199999                               29.422491535199999                     -5.1105758086400003e-18                     1.8728933502700001e-18                  397                           43                          8                     0.0045533089659299999  0.0043772085553400002  0.97399945204899996        9.8804722154999999e-14              7.1999999999999997e-11       
                    -1.2609648705400001e-18                      2776                                    3981.5694285499999               2.9891244799100001e-09             2.85665679145e-22                  400                                 2.0038393183500001e-18                     30.088270218000002                             30.088270218000002                               30.088270218000002                     -5.2085665297099996e-18                     1.9437623408199998e-18                  441                           43                          9                     0.0046901985775799999  0.0045472059423200002  0.97121728168699994        9.7981805067999999e-14              7.9999999999999995e-11       
                    -1.23647530555e-18                        3053                                    3835.0581539700001               2.9813191782399998e-09             3.3284533991699998e-22                400                                 2.0514391931400001e-18                     30.373791818499999                             30.373791818499999                               30.373791818499999                     -5.2990768409799999e-18                     2.0111623422899999e-18                  485                           43                          10                    0.0047419973616600001  0.0046143546055599999  0.96842275488999996        1.13630213259e-13                8.8000000000000006e-11       
                    -1.2116449429399999e-18                      3330                                    3661.62133408                    3.04589177755e-09               2.6934113276799999e-22                400                                 2.09435402717e-18                       30.643314295                                   30.643314295                                     30.643314295                           -5.3818599827599997e-18                     2.07586101266e-18                    529                           43                          11                    0.0046971126724699996  0.00461982488064     0.96563287394399999        9.0666749068299999e-14              9.6000000000000005e-11       
                    -1.1857051405499999e-18                      3601                                    3735.3076083599999               3.1914911510600002e-09             3.2726953294700001e-22                400                                 2.12871263666e-18                       30.9909636314                                  30.9909636314                                    30.9909636314                          -5.4557586516199998e-18                     2.14134087441e-18                    573                           43                          12                    0.0044819334873699998  0.0045720635601399998  0.96269763221600002        1.04994607269e-13                1.04e-10                  
                    -1.16021353343e-18                        3878                                    5510.1683046999997               2.5158455196199999e-09             1.85870013002e-22                  400                                 2.14359137422e-18                       31.338728773700002                             31.338728773700002                               31.338728773700002                     -5.5151205842400002e-18                     2.21131567659e-18                    617                           43                          13                    0.0039124781837400003  0.0045138502639700002  0.95923324082999994        7.84949073904e-14                1.12e-10                  
                    -1.1531971696500001e-18                      4155                                    13821.9386067                   -4.9349207661099996e-09            -3.1232363525699999e-22                400                                 2.1316703905000001e-18                     31.588571492500002                             31.588571492500002                               31.588571492500002                     -5.5379433196999999e-18                     2.2530757595500001e-18                  661                           43                          14                    0.00257744355081     0.00489157241946     0.95435979789500003        5.4247151989899997e-14              1.2e-10                   
                    -1.1838808920100001e-18                      4414                                    13088.190564500001              -7.0743331841899999e-09            -8.0412753757899997e-22                400                                 2.1346604469799998e-18                     31.682953852600001                             31.686555711499999                               31.686555711499999                     -5.55424721736e-18                       2.2357058783699999e-18                  705                           43                          15                    0.0021438490185100001  0.0063148298587099999  0.94775965818300001        8.6257882712499996e-14              1.28e-10                  
                    -1.1970179334399999e-18                      4679                                    9163.3793982400002              -1.9141974475599999e-09            -3.4574617170800002e-22                400                                 2.1295841078400001e-18                     31.494468363300001                             31.682953852600001                               31.686555711499999                     -5.6436897016000002e-18                     2.3170876603099998e-18                  749                           43                          16                    0.0034443531471999998  0.0072591479814499999  0.94093189041299996        1.15538719205e-13                1.36e-10                  
                    -1.19380279807e-18                        4944                                    8295.0638819399992              -2.8958994224200002e-10            -1.2193797932300001e-22                400                                 2.1971054588999998e-18                     30.990512602500001                             31.494468363300001                               31.686555711499999                     -5.7674825861399997e-18                     2.3765743291600001e-18                  793                           43                          17                    0.0042745564286099996  0.0088420489609000001  0.93428516393899996        9.7576391971600003e-14              1.4399999999999999e-10       
                    -1.1796713725399999e-18                      5209                                    7505.5010197600004               8.8137875420100003e-10             7.44198810985e-24                  400                                 2.3021667714199999e-18                     30.327657922899999                             30.990512602500001                               31.686555711499999                     -5.9058237805399998e-18                     2.4239856365700001e-18                  837                           43                          18                    0.0049971746401999998  0.0102311050841      0.92793653889200001        9.9861025915799999e-14              1.5199999999999999e-10       
                    -1.1640889104399999e-18                      5474                                    7043.7113350500003               6.6239963856999999e-10            -5.4499286083700003e-24                400                                 2.4330523324999998e-18                     28.735563986900001                             30.327657922899999                               31.686555711499999                     -6.0514228514699997e-18                     2.4542816085299999e-18                  881                           43                          19                    0.0060648458991699999  0.011100533931799999  0.92157694167100002        9.8297830978400005e-14              1.5999999999999999e-10       
                    -1.1503057303799999e-18                      5739                                    6782.3970836799999               6.8073890367200004e-10            -3.8346164222499999e-24                400                                 2.5359815838500001e-18                     28.3640268045                                  28.735563986900001                               31.686555711499999                     -6.1946069737700003e-18                     2.5083196595399999e-18                  925                           43                          20                    0.0068471667548100001  0.011675160685700001  0.91506947682600004        9.5787254274400006e-14              1.6799999999999999e-10       
                    -1.1338044164399999e-18                      6004                                    6555.9161388000002               1.2520805414500001e-09             5.4083763189100002e-23                400                                 2.6068731732200001e-18                     29.065162946000001                             29.583930556999999                               31.686555711499999                     -6.3159953251400002e-18                     2.57531773548e-18                    969                           43                          21                    0.0071962744298800004  0.012308835365400001  0.90846730144900001        9.7133450955400003e-14              1.7600000000000001e-10       
                    -1.1147397526800001e-18                      6269                                    6486.4926917700004               1.2303977201900001e-09             4.97003773647e-23                  400                                 2.6652062308500001e-18                     25.946425985899999                             29.065162946000001                               31.686555711499999                     -6.4295687089600001e-18                     2.6496227254300002e-18                  1013                          43                          22                    0.0074976911407599999  0.0130361253886      0.90153883640800003        9.5401303945599995e-14              1.8400000000000001e-10       
                    -1.0969903425699999e-18                      6534                                    6322.8450200400002               9.9738531654399995e-10             2.7506854198199997e-23                400                                 2.7206470815999998e-18                     25.8770295104                                  25.946425985899999                               31.686555711499999                     -6.5437002971999996e-18                     2.7260628730199999e-18                  1057                          43                          23                    0.0078360828535900002  0.0137784648817      0.89415344779700001        9.6462319133999995e-14              1.9200000000000001e-10       
                    -1.0805283975199999e-18                      6799                                    6224.5853044599999               9.3668320044599997e-10             2.0483503512000001e-23                400                                 2.7797473625500001e-18                     25.950379589299999                             25.950379589299999                               31.686555711499999                     -6.6608459550300002e-18                     2.8005701949699999e-18                  1101                          43                          24                    0.0081711127524799997  0.0144073606082      0.88645199594599999        9.6037450104300001e-14              2.0000000000000001e-10       
                    -1.0632673008200001e-18                      7064                                    6190.8614039000004               1.13746539473e-09               3.8021916696500002e-23                400                                 2.8444050295000001e-18                     25.946839325399999                             25.9596473135                                    31.686555711499999                     -6.78323142731e-18                       2.87555909698e-18                    1145                          43                          25                    0.0084411015946500006  0.014931233010300001  0.87860777785300004        9.5973806938499996e-14              2.0800000000000001e-10       
                    -1.04355989864e-18                        7329                                    6086.3952982700002               1.4483811579300001e-09             6.4915939018600003e-23                400                                 2.9157113448400001e-18                     25.883690769800001                             25.946839325399999                               31.686555711499999                     -6.9117788936999999e-18                     2.9525076502200001e-18                  1189                          43                          26                    0.0086520740778      0.0154072255119      0.87072626816300003        9.5748952251900006e-14              2.16e-10                  
                    -1.0208950818900001e-18                      7594                                    5991.7366795899998               1.80064761291e-09               9.7873211176899996e-23                400                                 2.99408688971e-18                       25.776751429099999                             25.883690769800001                               31.686555711499999                     -7.0471091078299998e-18                     3.0321271362400001e-18                  1233                          43                          27                    0.0088318905755099993  0.0158646770805      0.86284814734699999        9.62730540508e-14                2.24e-10                  
                    -9.9544618652900005e-19                      7859                                    6012.1268766200001               2.1144550020600001e-09             1.2767346412099999e-22                400                                 3.07917785813e-18                       25.6105946389                                  25.776751429099999                               31.686555711499999                     -7.1892728846300001e-18                     3.11464883997e-18                    1277                          43                          28                    0.0090026388365900007  0.016320824530799999  0.85497664217699998        9.6484369633700004e-14              2.32e-10                  
                    -9.6764030930900007e-19                      8124                                    6029.2611348700002               2.2595726572799999e-09             1.3333620488399999e-22                400                                 3.1701430246700001e-18                     25.3855655795                                  25.6105946389                                    31.686555711499999                     -7.3379220895400007e-18                     3.2001387555700001e-18                  1321                          43                          29                    0.0091779860376300006  0.016784436790499999  0.84710087760099995        9.4890309069499998e-14              2.4e-10                   
                    -9.3796314135800003e-19                      8389                                    6071.9297717700001               2.42582293497e-09               1.4751170783400001e-22                400                                 3.2659371482299999e-18                     25.125191151799999                             25.3855655795                                    31.686555711499999                     -7.4924952333099993e-18                     3.2885949437199999e-18                  1365                          43                          30                    0.0093628646028700007  0.017259428318800001  0.83920583951799999        9.60492425142e-14                2.4800000000000002e-10       
                    -9.0682295747299991e-19                      8654                                    6079.7131192300003               2.5352461338400001e-09             1.55030561671e-22                  400                                 3.3655931066400002e-18                     24.866992061800001                             25.125191151799999                               31.686555711499999                     -7.6523143630700005e-18                     3.3798982989499999e-18                  1409                          43                          31                    0.0095581530825900006  0.017749731669199999  0.83127458025199996        9.6096138247700005e-14              2.5599999999999999e-10       
                    -8.7458843447099995e-19                      8919                                    6034.0170961200001               2.6210127294400002e-09             1.6170860801700001e-22                400                                 3.4682772439100002e-18                     24.6475016863                                  24.866992061800001                               31.686555711499999                     -7.8166589052000006e-18                     3.47379322682e-18                    1453                          43                          32                    0.0097620721503499999  0.0182574476775      0.82328853707600003        9.64361814891e-14                2.6400000000000002e-10       
                    -8.4157830285099999e-19                      9184                                    6057.0239547800002               2.71910122776e-09               1.7302798178600001e-22                400                                 3.5733238180100002e-18                     24.4925362641                                  24.6475016863                                    31.686555711499999                     -7.9848363503999996e-18                     3.5699342295299998e-18                  1497                          43                          33                    0.0099720842444299997  0.018782379171100001  0.81522797650699996        9.7168573012299997e-14              2.7199999999999999e-10       
                    -8.0803816569899996e-19                      9449                                    6110.23611377                    2.6825076399100002e-09             1.6283827772600001e-22                400                                 3.6802312788000001e-18                     24.412737547799999                             24.4925362641                                    31.686555711499999                     -8.1562272206999996e-18                     3.6679577761999999e-18                  1541                          43                          34                    0.0101855746375      0.019323006769699998  0.80707330742200001        9.58346076774e-14                2.8000000000000002e-10       
                    -7.7418805567400001e-19                      9714                                    6135.1198809199996               2.6883188010800002e-09             1.6265357794000001e-22                400                                 3.7885861105199998e-18                     24.4046875949                                  24.412737547799999                               31.686555711499999                     -8.3303036530700001e-18                     3.76752948687e-18                    1585                          43                          35                    0.010399832251       0.019876907742199999  0.79880664991500006        9.6684105793899995e-14              2.8799999999999999e-10       
                    -7.4017084066000001e-19                      9979                                    6122.1659377200003               2.7035949869300001e-09             1.6453794401500001e-22                400                                 3.8980891226899998e-18                     24.454300570499999                             24.454300570499999                               31.686555711499999                     -8.5066282280899996e-18                     3.8683682647399999e-18                  1629                          43                          36                    0.010612354023       0.0204414347295      0.79041307153700002        9.7077790735000002e-14              2.9600000000000001e-10       
                    -7.0608019286499996e-19                      10244                                   6063.3733421200004               2.7098004686399998e-09             1.6528299091299999e-22                400                                 4.0085129835500004e-18                     24.542424961799998                             24.542424961799998                               31.686555711499999                     -8.6848411597200005e-18                     3.97024798331e-18                    1673                          43                          37                    0.010820947575399999  0.021014144414900002  0.78188133458099995        9.7146989624099998e-14              3.0399999999999998e-10       
                    -6.7196841853900001e-19                      10509                                   6122.5364784599997               2.6897613327699999e-09             1.6177341974599999e-22                400                                 4.1196895067500003e-18                     24.650150231000001                             24.650150231000001                               31.686555711499999                     -8.8646467813699996e-18                     4.0729888560799998e-18                  1717                          43                          38                    0.0110238427075      0.0215929136555      0.77320412673100003        9.6819715174700005e-14              3.1200000000000001e-10       