# OOMMF OVF 2.0
#
# Segment count: 1
#
# Begin: Segment
# Begin: Header
#
# Title: Oxs_TimeDriver::Magnetization
# Desc: Oxs vector field output
# Desc:  MIF source file: C:/Users/Victor H. González/Documents/GitHub/Intro-to-magnetism-in-python/domain_wall_conversion_thin_film/drive-35/domain_wall_conversion_thin_film.mif
# Desc:  Iteration: 1673, State id: 11998
# Desc:  Stage: 37, Stage iteration: 43
# Desc:  Stage simulation time: 8e-12 s
# Desc:  Total simulation time: 3.04e-10 s
# meshunit: m
# meshtype: rectangular
# xbase: 1.0000000000000001e-09
# ybase: 1.0000000000000001e-09
# zbase: 1.0000000000000001e-09
# xnodes: 225
# ynodes: 100
# znodes: 1
# xstepsize: 2.0000000000000001e-09
# ystepsize: 2.0000000000000001e-09
# zstepsize: 2.0000000000000001e-09
# xmin: 0
# ymin: 0
# zmin: 0
# xmax: 4.5000000000000003e-07
# ymax: 2.0000000000000002e-07
# zmax: 2.0000000000000001e-09
# valuedim: 3
# valuelabels: Magnetization_x Magnetization_y Magnetization_z
# valueunits: A/m A/m A/m
#
# End: Header
#
# Begin: Data Text
 0.000000000000000 -0.000000000000000 -0.000000000000000
 -0.000000000000000 0.000000000000000 0.000000000000000
 0.000000000000000 0.000000000000000 -0.000000000000000
 0.000000000000000 0.000000000000000 0.000000000000000
 0.000000000000000 0.000000000000000 0.000000000000000
 0.000000000000000 -0.000000000000000 0.000000000000000
 -0.000000000000000 -0.000000000000000 0.000000000000000
 -0.000000000000000 -0.000000000000000 -0.000000000000000
 -0.000000000000000 0.000000000000000 -0.000000000000000
 -0.000000000000000 -0.000000000000000 -0.000000000000000
 0.000000000000000 -0.000000000000000 -0.000000000000000
 0.000000000000000 0.000000000000000 0.000000000000000
 0.000000000000000 0.000000000000000 -0.000000000000000
 0.000000000000000 0.000000000000000 0.000000000000000
 0.000000000000000 0.000000000000000 -0.000000000000000
 -0.000000000000000 0.000000000000000 -0.000000000000000
 0.000000000000000 -0.000000000000000 -0.000000000000000
 -0.000000000000000 -0.000000000000000 0.000000000000000
 0.000000000000000 -0.000000000000000 -0.000000000000000
 -0.000000000000000 -0.000000000000000 -0.000000000000000
 0.000000000000000 -0.000000000000000 0.000000000000000
 0.000000000000000 -0.000000000000000 0.000000000000000
 0.000000000000000 0.000000000000000 -0.000000000000000
 -0.000000000000000 -0.000000000000000 0.000000000000000
 0.000000000000000 -0.000000000000000 0.000000000000000
 -256727.397454360 -28883.4779700318 -519284.881444344
 -184074.706540788 -35123.0980686185 -548892.403294111
 -132132.146841029 -46245.7559756118 -562852.046123513
 -96106.9032431523 -59352.1458925231 -568894.353924315
 -71397.8400318722 -73131.7866872242 -570923.891788317
 -54484.2677664507 -86974.7104828895 -570847.496536834
 -42876.1547885903 -100603.583137812 -569596.834972227
 -34861.4543183500 -113906.856180314 -567635.364576527
 -29267.4610330698 -126855.240758745 -565200.109356605
 -25287.4738880058 -139450.223998173 -562418.152882020
 -22358.3659175848 -151696.704879986 -559364.115046765
 -20089.0401142419 -163580.748265099 -556091.511591679
 -18204.2574214034 -175066.828503761 -552648.360686405
 -16524.6092336904 -186089.892267578 -549087.870277167
 -14931.5893701844 -196570.951680944 -545469.438735231
 -13371.5612594012 -206415.034661428 -541861.638073048
 -11817.8166551472 -215539.017312802 -538333.791643565
 -10289.4584606823 -223863.982277306 -534957.049195103
 -8801.19004131455 -231347.939839113 -531790.061759390
 -7399.27893459876 -237961.916056799 -528885.032098494
 -6098.89547794604 -243725.153958926 -526270.702967253
 -4941.49907835020 -248661.101989874 -523968.737563646
 -3921.35630248286 -252840.002173642 -521973.712236144
 -3063.73714609643 -256316.751842297 -520281.016605174
 -2340.94002092076 -259188.111631083 -518860.330714280
 -1765.74642417244 -261514.930382724 -517693.754382342
 -1297.76843738340 -263398.534041088 -516739.323123457
 -945.350417520517 -264887.885664705 -515978.211110383
 -665.188014129851 -266076.306483528 -515366.817570737
 -466.830529947671 -266992.972892623 -514892.740767643
 -310.131049370649 -267719.136376645 -514515.663353872
 -207.688242030306 -268263.409391942 -514232.146065379
 -125.019093694633 -268695.952366118 -514006.293300278
 -77.0536950792930 -269007.595430360 -513843.271497744
 -35.4413236842075 -269260.378701113 -513710.859536418
 -15.6824047312766 -269431.167676320 -513621.305670468
 4.71278941318330 -269577.016561854 -513544.771290099
 11.5345167180714 -269664.381244571 -513498.901026027
 21.7319996164602 -269747.826620761 -513455.070635295
 23.9725372735872 -269786.237277315 -513434.889349239
 29.8021622501899 -269833.350769744 -513410.130328770
 32.0331099281450 -269842.584561006 -513405.277077785
 36.7713743704402 -269867.745933984 -513392.051313980
 42.0220955378573 -269858.297956173 -513397.017188784
 48.3588110150204 -269868.386346435 -513391.713715947
 59.9667136157952 -269844.595015548 -513404.217887707
 71.9343600871750 -269841.155838159 -513406.023962880
 95.7861859817445 -269802.510186253 -513426.329985329
 121.640961744406 -269782.244251130 -513436.973629968
 170.105477853729 -269723.074156989 -513468.046066579
 227.935520505240 -269676.694448161 -513492.384088519
 327.986413680817 -269584.127383527 -513540.933799609
 457.635791589995 -269493.312846888 -513588.497632386
 668.384136046481 -269343.093745754 -513667.062516288
 957.334916394106 -269175.064127377 -513754.677216549
 1408.19173830477 -268924.802309780 -513884.683269188
 2047.88809563654 -268624.326427166 -514039.665206781
 3021.55270368675 -268204.564867649 -514254.004946401
 4429.64891396576 -267684.905098733 -514514.499108413
 6541.86296041294 -266991.359076621 -514852.229486700
 9626.28227299291 -266130.284763820 -515249.460185189
 14212.7744960654 -265027.038169289 -515711.805255938
 20937.1993118350 -263681.350412425 -516172.237852498
 30875.3045184816 -262028.944780123 -516514.808759929
 45441.1006811976 -260070.210239428 -516428.690251520
 66813.8900720319 -257737.150633702 -515274.165155466
 97898.5639145497 -254941.379071270 -511684.242888823
 142685.753287094 -251319.531341341 -502871.026183915
 205694.386789817 -245930.811005874 -483329.965387162
 290438.140099515 -236402.496313749 -442899.025187640
 394162.911097511 -217842.799915674 -365486.133854671
 498550.946520158 -182524.148953586 -233520.638857946
 564606.705581993 -124332.811508764 -46482.4697512316
 555843.332029216 -48566.1916532851 158365.132737466
 478309.132092071 27552.2641390585 326896.385569100
 372543.290671664 90268.2272783947 435273.642344152
 272730.724718504 136861.731806464 493241.135917774
 192638.579141065 170435.902980691 519848.036258355
 133261.350027976 194868.607059618 529780.745753718
 90956.6866034914 212975.094670382 531759.804998701
 61469.8524956259 226683.259384742 530317.034564114
 41187.4805015552 237128.750834169 527705.928503519
 27363.1246142475 245175.181356707 524919.412727374
 18027.5295823661 251319.935565692 522411.043302506
 11755.3800256283 256044.466535022 520291.305133238
 7595.20195212017 259611.011646070 518598.530213315
 4834.83806076809 262329.460827480 517261.904960041
 3047.30698365403 264348.364476699 516246.700830757
 1872.25438492507 265873.545722491 515468.478520723
 1140.25410355291 266986.495439837 514895.048600521
 658.412030570185 267821.796979807 514461.904863815
 380.113978147369 268420.589527285 514150.019577155
 190.249268650595 268868.329633125 513916.126547426
 98.7427709599433 269183.840787153 513750.961175687
 26.2215066051047 269419.183723913 513627.591503780
 7.08409445269892 269582.756766494 513541.757994414
 -21.1520439766363 269703.980291611 513478.103298917
 -14.9926275488600 269788.062566273 513433.930581100
 -27.9510619780653 269848.859225317 513401.979343217
 -14.8304249404624 269892.359495329 513379.113390974
 -23.1618064309898 269921.452992427 513363.817071274
 -9.65807706126211 269944.772935218 513351.555439033
 -16.7600909917993 269957.293049381 513344.971387224
 -4.90064589544257 269970.881985920 513337.825272723
 -11.5305849452085 269974.724324334 513335.804413686
 -1.72008009331139 269983.794858752 513331.034042077
 -7.81311572098523 269983.074892220 513331.412647519
 0.0458564413206245 269990.137365793 513327.698186254
 -5.28522278107218 269987.022381923 513329.336505727
 0.830744603043165 269993.219558021 513326.077062138
 -3.56072205300054 269988.881063706 513328.358937327
 1.01741389681570 269994.679392832 513325.309232388
 -2.34669106084154 269989.779685780 513327.886306323
 0.875342780260454 269995.322357812 513324.971050635
 -1.45396238154759 269990.259243372 513327.634081375
 0.576011405165346 269995.544284284 513324.854323557
 -0.770460617276170 269990.572497346 513327.469323395
 0.222335375110355 269995.541498110 513324.855789288
 -0.233186050739071 269990.832407625 513327.332620992
 -0.126583911679335 269995.413992944 513324.922853706
 0.192407531959605 269991.085019745 513327.199756475
 -0.438458266809613 269995.215462283 513325.027275393
 0.525610621751136 269991.344987912 513327.063022535
 -0.697142016703407 269994.977231739 513325.152577922
 0.778230095315963 269991.612786068 513326.922170046
 -0.896233192320362 269994.719521315 513325.288126158
 0.958862275499959 269991.883016109 513326.780038307
 -1.03530076228468 269994.456646757 513325.426390463
 1.07506787675660 269992.148415503 513326.640447216
 -1.11763137047816 269994.199375327 513325.561707604
 1.13435514150953 269992.401784775 513326.507183491
 -1.14882405163413 269993.955975238 513325.689728774
 1.14451219859991 269992.636893420 513326.383524194
 -1.13585742346932 269993.732688168 513325.807171059
 1.11359763497863 269992.848871257 513326.272030902
 -1.08642769110131 269993.533969065 513325.911691311
 1.04976635140316 269993.034330702 513326.174485384
 -1.00845134260002 269993.362650504 513326.001799691
 0.961031643732408 269993.191339859 513326.091903767
 -0.909680193571249 269993.220098758 513326.076777594
 0.855019709046220 269993.319308711 513326.024596389
 -0.797403883030390 269993.106387370 513326.136586344
 0.738748564592032 269993.418824889 513325.972254183
 -0.678226918169249 269993.020494193 513326.181763567
 0.618448839821918 269993.491462460 513325.934049243
 -0.557913908611747 269992.960518415 513326.213309033
 0.499432343587124 269993.539581739 513325.908740125
 -0.441301471658503 269992.923912553 513326.232562642
 0.386004543069485 269993.566138522 513325.894772175
 -0.332279330848577 269992.907728900 513326.241074799
 0.281407532683658 269993.574525722 513325.890360836
 -0.233850132813000 269992.908889071 513326.240464642
 0.187764765436497 269993.568479424 513325.893541045
 -0.148296243037552 269992.924501445 513326.232253073
 0.105966021332179 269993.552099921 513325.902156180
 -0.0775283544652947 269992.952281861 513326.217641491
 0.0353582769642187 269993.530076807 513325.913739666
 -0.0237979185532240 269992.991191233 513326.197176425
 -0.0270533744203285 269993.508283363 513325.925202343
 0.00880383331068503 269993.042512756 513326.170182960
 -0.0885504817856486 269993.495049422 513325.932162978
 0.0110987692624991 269993.111790138 513326.133745280
 -0.165252122065918 269993.503684993 513325.927620917
 -0.0383402772737306 269993.212403218 513326.080826009
 -0.292533306580445 269993.557294170 513325.899424092
 -0.189129230819578 269993.372175523 513325.996790785
 -0.548599598423599 269993.697723413 513325.825562417
 -0.554674594237569 269993.645451214 513325.853055987
 -1.10750036551103 269994.001820304 513325.665615730
 -1.39175779996288 269994.134762209 513325.595691535
 -2.35792071348063 269994.610270378 513325.345584443
 -3.27836517198154 269995.028758525 513325.125466244
 -5.16877068637836 269995.777321386 513324.731726326
 -7.51068420023181 269996.666596549 513324.263960259
 -11.4820062759032 269997.953630336 513323.586934786
 -16.9884314814468 269999.643138231 513322.698131127
 -25.6341114930683 270001.918566394 513321.500926426
 -38.1870493276150 270004.972927869 513319.893571221
 -57.2984342914147 270008.980941039 513317.783568883
 -85.5463454414566 270014.332209771 513314.964795625
 -128.029168752728 270021.267359962 513311.307864781
 -191.225613349252 270030.399375322 513306.484320984
 -285.798900444818 270042.125282440 513300.271665554
 -426.760907328035 270057.342734346 513292.167785942
 -637.250276168603 270076.746300577 513281.740391941
 -951.072118453304 270101.690599890 513268.128951045
 -1419.11641102345 270133.516868497 513250.298755753
 -2116.64270884925 270174.628785346 513226.255938200
 -3155.93728735036 270228.151230756 513192.738006148
 -4703.51040448640 270299.588760848 513143.263919144
 -7006.64685309552 270397.556665408 513065.364499743
 -10431.4321163162 270537.054791440 512933.608967843
 -15518.7618951871 270742.787532291 512696.314623468
 -23064.2830732208 271055.688003995 512246.867093396
 -34230.4367995702 271539.691501965 511365.303022731
 -50694.7013622884 272288.662034555 509596.832585546
 -74821.5084041953 273423.643107106 506005.190951792
 -109786.004982195 275065.618017768 498684.207584873
 -159400.095843145 277261.559231506 483857.042128881
 -226928.353507464 279916.210674415 454478.203411416
 -0.000000000000000 -0.000000000000000 -0.000000000000000
 -0.000000000000000 -0.000000000000000 -0.000000000000000
 0.000000000000000 0.000000000000000 -0.000000000000000
 0.000000000000000 -0.000000000000000 0.000000000000000
 -0.000000000000000 -0.000000000000000 -0.000000000000000
 -0.000000000000000 -0.000000000000000 -0.000000000000000
 0.000000000000000 0.000000000000000 0.000000000000000
 0.000000000000000 0.000000000000000 -0.000000000000000
 0.000000000000000 0.000000000000000 -0.000000000000000
 0.000000000000000 0.000000000000000 -0.000000000000000
 -0.000000000000000 0.000000000000000 0.000000000000000
 -0.000000000000000 -0.000000000000000 0.000000000000000
 0.000000000000000 -0.000000000000000 -0.000000000000000
 -0.000000000000000 -0.000000000000000 -0.000000000000000
 -0.000000000000000 0.000000000000000 0.000000000000000
 -0.000000000000000 0.000000000000000 0.000000000000000
 -0.000000000000000 -0.000000000000000 -0.000000000000000
 0.000000000000000 0.000000000000000 -0.000000000000000
 0.000000000000000 -0.000000000000000 0.000000000000000
 -0.000000000000000 -0.000000000000000 -0.000000000000000
 -0.000000000000000 0.000000000000000 0.000000000000000
 0.000000000000000 -0.000000000000000 -0.000000000000000
 0.000000000000000 0.000000000000000 -0.000000000000000
 0.000000000000000 -0.000000000000000 0.000000000000000
 -0.000000000000000 0.000000000000000 0.000000000000000
 -254279.505131865 72816.3499627789 -516177.985241518
 -183532.181491875 66755.3507704785 -546131.542304914
 -133420.819880217 55682.0094799223 -561692.441326006
 -98701.7193684242 42155.7219914963 -569983.215276637
 -74813.6605424040 27563.0683699332 -574493.858503535
 -58379.6687575329 12635.7475586861 -576916.070290466
 -47039.7298042285 -2256.73643557631 -578084.916738540
 -39169.7634509964 -16948.2902148518 -578427.597102685
 -33651.3000715196 -31375.8447848875 -578172.246279196
 -29699.0428005724 -45524.7890134160 -577447.365949498
 -26761.1885397124 -59380.3060186547 -576331.343972435
 -24435.5073561973 -72916.0523937981 -574879.252785791
 -22448.7274225250 -86065.1073735557 -573139.469876127
 -20600.4474262676 -98741.9190362128 -571161.671500184
 -18787.9225261872 -110819.928435055 -569004.356247647
 -16937.3571253105 -122183.984008365 -566731.153180636
 -15062.8959814042 -132698.219180111 -564414.999615602
 -13161.6025243633 -142282.687867024 -562123.126149713
 -11311.8868871502 -150850.026654313 -559925.272401099
 -9524.20635298645 -158402.469370605 -557869.112956292
 -7891.15477639592 -164921.757678134 -556002.287334009
 -6395.09775695701 -170494.085537136 -554338.226646453
 -5114.93386320224 -175149.093905473 -552898.392433608
 -3993.53852238394 -179027.741211721 -551663.955254192
 -3093.34149253188 -182170.847004334 -550639.822152497
 -2328.39717063922 -184741.828993376 -549786.354129309
 -1753.48186366292 -186763.818645410 -549104.909235328
 -1270.37822876120 -188402.209928092 -548546.254597884
 -934.087290760487 -189648.298161505 -548117.369260798
 -646.860779134563 -190661.508024222 -547766.164461682
 -466.574718525009 -191398.552600793 -547509.247748706
 -303.077153545593 -192012.705454738 -547294.280153001
 -215.581915918016 -192429.350543356 -547147.967714310
 -124.783624116516 -192798.634777636 -547017.980378092
 -87.7699911944347 -193019.902500571 -546939.950575105
 -37.5021723290662 -193243.647142937 -546860.943414762
 -25.1515345846346 -193348.423403599 -546823.908159421
 3.17990607488359 -193487.766527477 -546774.619193409
 5.63915751269296 -193523.889414693 -546761.834983030
 22.0937458192177 -193614.949509602 -546729.595721926
 22.8702804402590 -193610.388524562 -546731.210863546
 32.7671253456772 -193673.506972302 -546708.854531702
 36.7037404175728 -193643.863073270 -546719.354831065
 43.2894323862894 -193689.526724441 -546703.178482883
 54.1684212345091 -193642.618980095 -546719.794026439
 60.7296417053957 -193674.855486554 -546708.374422939
 83.3902588444474 -193613.115473089 -546730.239298019
 95.6519118076290 -193630.965921143 -546723.915598318
 138.953213473282 -193552.093290847 -546751.833901575
 169.086827038663 -193549.458978374 -546752.757961790
 251.495801948416 -193445.471354501 -546789.526566023
 326.213078954529 -193409.317337462 -546802.276469369
 487.547076110390 -193263.839568139 -546853.591570202
 665.385653481708 -193170.509722403 -546886.378908379
 992.161420329160 -192954.041005467 -546962.296392884
 1400.88072690984 -192763.563053807 -547028.560764418
 2081.27652439570 -192426.989363068 -547144.882140640
 2998.83857042677 -192076.456257314 -547263.777276425
 4441.64563420465 -191545.367041071 -547440.082702355
 6471.10142978172 -190946.435047813 -547629.056742625
 9562.12091477557 -190125.170355233 -547869.496724362
 14007.3831869461 -189180.322793479 -548100.901918624
 20657.9356088769 -187987.983014149 -548300.800600046
 30321.4909817563 -186656.134598368 -548306.569905413
 44616.3611997905 -185129.664199502 -547847.047766682
 65421.5184808710 -183564.223378702 -546282.162270590
 95814.7154539316 -181990.624007013 -542308.909272215
 139493.782680065 -180525.603079567 -533246.651397236
 201206.537394861 -178901.129324144 -513722.021365754
 284535.819669285 -176110.782943645 -473734.482021421
 387650.566487792 -169202.662461461 -396859.543563773
 493336.797460355 -152464.630745942 -264146.437876917
 562984.946446342 -119293.494805117 -72228.8873788811
 557843.661307368 -69891.2739412479 142568.086772812
 481641.497741629 -15151.5994603464 322787.695996911
 375440.908560588 33391.9373727540 440827.747195766
 274732.126452105 71560.1263009155 505768.135630253
 193987.330758413 100451.860405666 537287.948167710
 134182.739375216 122206.065814228 550872.644022166
 91655.7493378665 138902.025718411 555612.680619005
 62029.9699756479 151702.409129878 556361.988177671
 41650.1322359092 161724.596323006 555437.144444709
 27770.9656575458 169408.500784209 554012.214060750
 18353.3395461134 175440.365663470 552524.961448234
 12056.5062939378 179991.293475200 551232.958855971
 7813.39684290541 183548.378357371 550135.386638739
 5049.11860664848 186169.953278601 549286.132081941
 3180.95417671999 188212.729022538 548603.545526653
 2020.05124496998 189677.695598049 548104.270358826
 1212.84801252205 190821.571360449 547709.463952584
 759.503356569871 191617.225907060 547432.426780086
 412.204857321105 192243.698706026 547213.112411410
 260.639359838231 192665.326988733 547064.899114766
 105.929180248130 193001.490979531 546946.444598268
 77.2116353322936 193220.925861389 546868.967713136
 0.101904532025286 193397.164941244 546806.672044772
 17.6767070239054 193510.871079349 546766.442333146
 -29.2262705423350 193599.906632867 546734.922332176
 3.02238432075794 193660.344986903 546713.518005929
 -32.0550784830818 193701.883509901 546698.801258233
 2.37024591647853 193736.736567783 546686.452089722
 -27.3339988856201 193752.182645894 546680.977328464
 4.62156500724861 193775.584279273 546672.683528148
 -21.5580373414782 193776.451705742 546672.375650703
 6.37421111982981 193795.309473992 546665.691245801
 -16.5429540912652 193787.869246968 546668.328567744
 6.97792074084265 193805.324297271 546662.140837774
 -12.5271874768887 193793.103196168 546666.473269277
 6.61980369522473 193810.382546875 546660.347540603
 -9.32771950047006 193795.475075809 546665.632496808
 5.64427918467472 193812.866559008 546659.466875240
 -6.72341392714893 193796.609491841 546665.230378028
 4.34818043419066 193813.968252355 546659.076291036
 -4.55250534422118 193797.280729945 546664.992441398
 2.94314001310204 193814.289583647 546658.962374646
 -2.71656781716959 193797.841588149 546664.793624389
 1.56744291918427 193814.143385853 546659.014213752
 -1.16166478662536 193798.438275722 546664.582098147
 0.306332795649349 193813.701931337 546659.170730335
 0.140489582264400 193799.117263893 546664.341390323
 -0.791032536143475 193813.069168467 546659.395070527
 1.20598653576053 193799.878189087 546664.071631236
 -1.69974518016162 193812.315192221 546659.662383226
 2.04696765419360 193800.700049558 546663.780267278
 -2.41140772253723 193811.492280512 546659.954134365
 2.67607692493130 193801.554247769 546663.477437434
 -2.92911627342377 193810.642093157 546660.255554451
 3.10846185195085 193802.411155166 546663.173646059
 -3.26409131037425 193809.798752722 546660.554546215
 3.36230680371217 193803.243452475 546662.878578741
 -3.43325541524744 193808.990094440 546660.841241428
 3.45854238870021 193804.027810734 546662.600506359
 -3.45735561983066 193808.238174193 546661.107820798
 3.42012650836284 193804.745666805 546662.346010157
 -3.35942225375043 193807.559545030 546661.348415922
 3.27113854770560 193805.383465783 546662.119895809
 -3.16346484215655 193806.965531695 546661.559011962
 3.03583679574176 193805.932562329 546661.925228409
 -2.89336417619629 193806.462593101 546661.737319137
 2.73777167076296 193806.388889328 546661.763449926
 -2.57194905751910 193806.052795401 546661.882605008
 2.39901147383860 193806.752465912 546661.634553644
 -2.22025638788809 193805.734386318 546661.995490861
 2.03951450170318 193807.026799894 546661.537295999
 -1.85697444834956 193805.502445750 546662.077721057
 1.67666335686581 193807.218230968 546661.469429448
 -1.49806799532160 193805.349582420 546662.131916041
 1.32496147877691 193807.335257731 546661.427941045
 -1.15658191051066 193805.266649641 546662.161318601
 0.995877948743289 193807.387892457 546661.409281203
 -0.842619604844418 193805.243462953 546662.169539429
 0.697811395327028 193807.387091645 546661.409565576
 -0.563499157518677 193805.269518870 546662.160302322
 0.436119399633592 193807.344321122 546661.424729242
 -0.324115635161209 193805.334742227 546662.137179216
 0.213110966736267 193807.271340610 546661.450603078
 -0.127603910671003 193805.430341146 546662.103287092
 0.0277948451010167 193807.180350253 546661.482861820
 0.0234504315006952 193805.549943604 546662.060885019
 -0.125054945095733 193807.084758433 546661.516751840
 0.124657784022864 193805.691364319 546662.010747758
 -0.257472772297033 193807.001055644 546661.546426810
 0.164955113692119 193805.859670382 546661.951078907
 -0.394633613004567 193806.952700487 546661.563569998
 0.116098180690085 193806.072793599 546661.875521157
 -0.589674680034389 193806.977692453 546661.554709465
 -0.0905248862159688 193806.371973574 546661.769453867
 -0.957591151430936 193807.142876148 546661.496146626
 -0.615564669742587 193806.841132860 546661.603123654
 -1.75188653286122 193807.570403742 546661.344573704
 -1.82725463177203 193807.642397422 546661.319049568
 -3.53690274678112 193808.485811412 546661.020025186
 -4.55990054751095 193809.080158937 546660.809302400
 -7.57395839783357 193810.303783792 546660.375452501
 -10.6917025046892 193811.714470494 546659.875260381
 -16.6845925881791 193813.778278746 546659.143407427
 -24.4348013469981 193816.557917038 546658.157608694
 -37.1769776657531 193820.260563900 546656.844110466
 -55.2114770160993 193825.411689222 546655.016198695
 -83.1382048020328 193832.136998830 546652.628050488
 -124.057673143776 193841.435070257 546649.323295654
 -185.983843495225 193853.573522834 546645.001296488
 -277.858817241721 193870.126231458 546639.092042892
 -415.671232588174 193891.828087327 546631.307389525
 -620.946378983445 193921.117304545 546620.722886493
 -927.738640209875 193959.780429865 546606.570466011
 -1385.08668534628 194011.865409424 546587.118047278
 -2067.36966326178 194081.517801213 546560.234951878
 -3084.07982860539 194176.390591040 546521.745028179
 -4598.81795058725 194306.365227411 546464.900341796
 -6853.73359988711 194488.174438783 546376.588388642
 -10208.1892402285 194746.471639812 546232.189326370
 -15193.2436979145 195121.521493159 545982.378100365
 -22591.7139852088 195675.241486346 545528.014247179
 -33550.8335934748 196504.281394901 544665.410099317
 -49736.0913560798 197750.721422407 542974.192198430
 -73523.5596645278 199609.407225007 539583.515983891
 -108189.295614356 202300.167749911 532700.402142543
 -157940.252065784 205937.536402230 518695.101073816
 -227347.769211917 210093.738264739 490483.040457377
 -0.000000000000000 0.000000000000000 -0.000000000000000
 -0.000000000000000 -0.000000000000000 0.000000000000000
 -0.000000000000000 -0.000000000000000 -0.000000000000000
 0.000000000000000 0.000000000000000 0.000000000000000
 0.000000000000000 -0.000000000000000 -0.000000000000000
 -0.000000000000000 0.000000000000000 0.000000000000000
 0.000000000000000 0.000000000000000 -0.000000000000000
 -0.000000000000000 0.000000000000000 0.000000000000000
 0.000000000000000 0.000000000000000 0.000000000000000
 0.000000000000000 -0.000000000000000 -0.000000000000000
 -0.000000000000000 0.000000000000000 0.000000000000000
 -0.000000000000000 0.000000000000000 0.000000000000000
 -0.000000000000000 0.000000000000000 -0.000000000000000
 -0.000000000000000 -0.000000000000000 0.000000000000000
 -0.000000000000000 0.000000000000000 0.000000000000000
 0.000000000000000 0.000000000000000 -0.000000000000000
 -0.000000000000000 0.000000000000000 -0.000000000000000
 -0.000000000000000 0.000000000000000 0.000000000000000
 0.000000000000000 -0.000000000000000 0.000000000000000
 0.000000000000000 0.000000000000000 -0.000000000000000
 -0.000000000000000 -0.000000000000000 0.000000000000000
 -0.000000000000000 0.000000000000000 -0.000000000000000
 -0.000000000000000 -0.000000000000000 -0.000000000000000
 -0.000000000000000 0.000000000000000 -0.000000000000000
 0.000000000000000 -0.000000000000000 0.000000000000000
 -251580.757152689 182334.684514183 -489756.251061274
 -185385.100752096 174289.613142699 -521205.808841099
 -138571.696564765 161252.802321451 -539625.257613690
 -105922.486281569 145611.910234465 -551341.635012087
 -83208.4791639201 128727.872879912 -559379.552485646
 -67388.6305115939 111362.075111912 -565205.503073476
 -56348.8748854625 93910.0651061165 -569566.241951634
 -48620.7835292434 76553.3245371827 -572866.134372864
 -43162.3693981411 59353.2563138847 -575338.335966653
 -39222.5423702885 42331.1088872160 -577121.884345404
 -36236.4135874949 25502.3031243344 -578304.897839946
 -33792.5282513832 8927.63998105176 -578945.906176689
 -31571.6347887951 -7299.22077120152 -579094.079794377
 -29376.3868057380 -23014.0603902496 -578798.221250371
 -27059.6061001187 -38044.2290722455 -578117.993451168
 -24599.6608394246 -52167.6953035545 -577125.106240667
 -21976.5051430411 -65221.4470691479 -575902.071591954
 -19295.8144959245 -77024.8323473283 -574538.812217943
 -16591.0907523160 -87523.3283215030 -573118.140270551
 -14018.6430277400 -96641.5946729712 -571720.106194217
 -11585.3693701119 -104465.428211537 -570397.013951808
 -9435.46057754636 -111010.129957548 -569199.194597548
 -7509.36862039917 -116464.368731439 -568137.008298975
 -5920.38191586040 -120875.001120763 -567233.799400235
 -4549.64323301553 -124477.810507285 -566466.746983231
 -3491.13333248449 -127298.485571437 -565847.070823269
 -2594.03046560650 -129582.401534999 -565333.239972997
 -1948.93178445005 -131307.249080958 -564937.702763491
 -1397.69876678005 -132713.408209586 -564610.660295706
 -1035.22491085574 -133724.673094475 -564372.784704542
 -711.016939924820 -134575.787508911 -564170.942065671
 -523.652682424279 -135141.359297465 -564035.937503189
 -337.558615371384 -135655.169603782 -563912.724642697
 -250.024168880711 -135950.705152136 -563841.594117134
 -143.672489257365 -136265.976875294 -563765.521209340
 -108.376353778108 -136401.276033690 -563732.809184410
 -46.7913112078577 -136602.678323373 -563684.048102707
 -35.6622985944605 -136643.922441754 -563674.052257093
 0.707073144028686 -136781.240114677 -563640.747597431
 3.54588764838939 -136767.138455306 -563644.169513154
 25.1143427526888 -136868.531558287 -563619.556472580
 28.6641351601354 -136821.041425592 -563631.086617465
 41.0572876342842 -136901.522229820 -563611.543108777
 51.0384765434620 -136832.483439446 -563628.307371859
 58.0976725662575 -136898.951082615 -563612.166136555
 79.5952674211271 -136813.847158670 -563632.828080691
 85.9232626403142 -136867.722371359 -563619.746983788
 126.076659016018 -136767.406638670 -563644.090349583
 140.275078085885 -136805.509996457 -563634.839907464
 212.426313612960 -136686.347010803 -563663.727248706
 252.858651883121 -136700.306506522 -563660.325252297
 384.655553002861 -136552.867207016 -563695.987654382
 491.242537458741 -136527.093696140 -563702.147740857
 741.726388329402 -136333.394738606 -563748.751946301
 1001.07000793983 -136241.681278716 -563770.522589811
 1497.38811038663 -135971.254804669 -563834.706004952
 2096.78770843877 -135772.814664052 -563880.613498555
 3113.28614256469 -135379.401695815 -563970.500155706
 4456.94743555257 -135017.842670413 -564048.152004937
 6585.27276443054 -134442.981100102 -564164.620492579
 9543.72194029505 -133858.835854118 -564261.224465502