# OOMMF OVF 2.0
# 
# Segment count: 1
# 
# Begin: Segment
# Begin: Header
# 
# Title: Field
# Desc: File generated by Field class
# meshunit: m
# meshtype: rectangular
# xbase: 1e-09
# ybase: 1e-09
# zbase: 1e-09
# xnodes: 225
# ynodes: 100
# znodes: 1
# xstepsize: 2e-09
# ystepsize: 2e-09
# zstepsize: 2e-09
# xmin: 0.0
# ymin: 0.0
# zmin: 0.0
# xmax: 4.5e-07
# ymax: 2e-07
# zmax: 2e-09
# valuedim: 3
# valuelabels: field_x field_y field_z
# valueunits: None None None
# 
# End: Header
# 
# Begin: Data Text
 0.0 -0.0 -0.0
 -0.0 0.0 0.0
 0.0 0.0 -0.0
 0.0 0.0 0.0
 0.0 0.0 0.0
 0.0 -0.0 0.0
 -0.0 -0.0 0.0
 -0.0 -0.0 -0.0
 -0.0 0.0 -0.0
 -0.0 -0.0 -0.0
 0.0 -0.0 -0.0
 0.0 0.0 0.0
 0.0 0.0 -0.0
 0.0 0.0 0.0
 0.0 0.0 -0.0
 -0.0 0.0 -0.0
 0.0 -0.0 -0.0
 -0.0 -0.0 0.0
 0.0 -0.0 -0.0
 -0.0 -0.0 -0.0
 0.0 -0.0 0.0
 0.0 -0.0 0.0
 0.0 0.0 -0.0
 -0.0 -0.0 0.0
 0.0 -0.0 0.0
 263605.880260274 233506.001788461 460854.518282043
 192486.205007902 234496.350840998 494328.354764231
 137768.100304534 237676.527166494 510812.900162628
 97503.9281423325 241824.088279324 518086.956335216
 68521.0391639663 246223.306595401 520652.427710769
 47900.6738434035 250441.050030024 520946.068134895
 33333.4404925713 254239.199167478 520241.589409774
 23095.657370791 257514.045055583 519185.041396343
 15932.9487879866 260248.328071322 518089.711226734
 10943.3635751109 262475.230299479 517094.765273154
 7482.69481562874 264253.292528905 516250.139628
 5093.04287547611 265650.160734977 515561.880879249
 3450.34364658252 266732.853224948 515016.194055293
 2326.24914002993 267562.520552591 514591.960839346
 1560.57936982552 268192.127331407 514267.000136587
 1041.49021696778 268665.906869303 514020.958506774
 691.255473113901 269019.81946286 513836.412588716
 456.112207751123 269282.492714103 513699.066652192
 299.047939014564 269476.339862276 513597.520267341
 194.701222968716 269618.670788317 513522.866534466
 125.774510597846 269722.702232928 513468.254209488
 80.5264504738593 269798.429587576 513428.476915304
 51.0237777438485 269853.3498318 513399.617238979
 31.9327418535205 269893.045399651 513378.7520196
 19.6849165742685 269921.648378132 513363.714484513
 11.9055051341537 269942.199950014 513352.908382144
 7.02187408895627 269956.927750898 513345.163715399
 3.99996103747065 269967.456396464 513339.626826942
 2.16321951179095 269974.966096447 513335.67738522
 1.07252753207648 269980.311425288 513332.866122513
 0.445092785031439 269984.107988986 513330.869355422
 0.100670078540849 269986.800044674 513329.453471771
 -0.0746899472997318 269988.705075787 513328.451511792
 -0.152054726155934 269990.051372959 513327.743415066
 -0.174568392316903 269991.000968963 513327.243964069
 -0.168891895155682 269991.670072302 513326.892040092
 -0.149944668226604 269992.140631524 513326.644542425
 -0.12666874708952 269992.471290022 513326.47062731
 -0.103329950893017 269992.70278164 513326.348870438
 -0.0823192752028682 269992.8650596 513326.263517562
 -0.0645189437313843 269992.978272664 513326.203971172
 -0.0500264003736687 269993.057299282 513326.162405721
 -0.0384674512701881 269993.112502791 513326.133370447
 -0.0295188821006787 269993.150988535 513326.113128176
 -0.0226472632965032 269993.177803995 513326.0990241
 -0.0172726917989176 269993.196374103 513326.089256814
 -0.0131396733631741 269993.209429823 513326.08238992
 -0.0100525524210216 269993.218294026 513326.077727632
 -0.00777138462054009 269993.22468028 513326.074368665
 -0.00611777558476099 269993.228794846 513326.072204534
 -0.00478786565208423 269993.232165196 513326.070431836
 -0.004071344037738 269993.234166114 513326.069379417
 -0.00348994924365117 269993.235899476 513326.068467723
 -0.00321147080665605 269993.23728587 513326.067738524
 -0.00320556646514126 269993.238343184 513326.067182411
 -0.00310732601337899 269993.239284589 513326.066687261
 -0.00307500443173113 269993.240087421 513326.066264997
 -0.0027884200965926 269993.240905339 513326.065834798
 -0.00239249877755885 269993.241610015 513326.065464161
 -0.00175963371550005 269993.242475961 513326.065008701
 -0.00115061698121756 269993.243018166 513326.064723518
 -0.000397258467569961 269993.243778673 513326.064323516
 0.000187618213990051 269993.243953378 513326.064231626
 0.000847483956949569 269993.244349554 513326.06402325
 0.00130068214646521 269993.244432958 513326.063979382
 0.00159714924991164 269993.244494716 513326.063946899
 0.0018104520590601 269993.244484217 513326.063952422
 0.00175643703783292 269993.24420412 513326.064099744
 0.0017763437559636 269993.244035563 513326.0641884
 0.00152907903006504 269993.243450654 513326.064496043
 0.00158175679142958 269993.243254088 513326.06459943
 0.0014443239932184 269993.24274659 513326.064866358
 0.00144935588962784 269993.242550874 513326.064969299
 0.0014442776360827 269993.242153117 513326.065178506
 0.00141483851230298 269993.241778482 513326.065375553
 0.00158553109950382 269993.241462497 513326.065541751
 0.00142605741149556 269993.240749597 513326.065916714
 0.00158997124378599 269993.240292378 513326.066157196
 0.00143425455293337 269993.239376407 513326.066638968
 0.00122276389108262 269993.238609131 513326.067042531
 0.00105541808762777 269993.237687789 513326.067527127
 0.000656887742025967 269993.236884856 513326.067949445
 0.00040437072060377 269993.236186962 513326.068316515
 -6.73907002410449e-06 269993.235452257 513326.068702946
 -0.000503978236572511 269993.234917753 513326.068984078
 -0.00102565288245732 269993.234268163 513326.069325742
 -0.00166857813819281 269993.233910521 513326.069513851
 -0.00232135578862834 269993.233398538 513326.069783137
 -0.00268062997499283 269993.233179618 513326.069898283
 -0.00309437243387509 269993.232873424 513326.070059331
 -0.00336567292660708 269993.232572324 513326.0702177
 -0.00344690458274426 269993.232531875 513326.070238975
 -0.00363240934691385 269993.232387124 513326.07031511
 -0.0035596190730626 269993.232808251 513326.07009361
 -0.00333431036714443 269993.233162307 513326.069907388
 -0.00266263717561817 269993.233900125 513326.069519319
 -0.00177572633191324 269993.234672378 513326.069113138
 -0.000731239057032957 269993.235225421 513326.068822255
 0.000426436067786664 269993.236033215 513326.068397381
 0.00113327362405463 269993.236348935 513326.068231322
 0.00173347828935295 269993.236899926 513326.067941519
 0.00199536383557526 269993.23725709 513326.067753661
 0.00209592064807802 269993.237509899 513326.067620692
 0.00210404409970002 269993.237843066 513326.067445457
 0.00178732670715245 269993.237772645 513326.067482496
 0.00143136698279586 269993.238097607 513326.067311576
 0.000762157033159427 269993.2382518 513326.067230476
 0.000242779098950663 269993.238706775 513326.066991173
 -6.65273142335144e-05 269993.239343863 513326.066656085
 -0.000235381628091881 269993.239757262 513326.06643865
 -0.000120118429158386 269993.240673994 513326.065956478
 -0.000131320346968467 269993.241307613 513326.065623215
 0.000121652068807815 269993.242212764 513326.065147134
 0.000316714105449638 269993.243021962 513326.064721522
 0.000516794778664012 269993.243277048 513326.064587354
 0.000873593081004635 269993.243612507 513326.064410913
 0.000713660255795984 269993.243332272 513326.064558308
 0.000694834477001171 269993.243260384 513326.064596119
 0.000520032116118769 269993.243139971 513326.064659452
 0.000144587333589654 269993.242732511 513326.064873764
 4.03609464034117e-06 269993.242751202 513326.064863933
 -0.000479727559310081 269993.242411135 513326.065042797
 -0.000462366067699108 269993.242274066 513326.065114891
 -0.00019681364872007 269993.241817147 513326.065355216
 4.85977674727347e-05 269993.24074141 513326.06592102
 0.000810150338962138 269993.239865429 513326.066381758
 0.0011435694537234 269993.238479154 513326.067110895
 0.0016406949210939 269993.237315135 513326.067723132
 0.00213525996616359 269993.236204955 513326.068307051
 0.0020432173415456 269993.234945149 513326.068969669
 0.00230975419342556 269993.234566202 513326.069168984
 0.00210700001256688 269993.234138344 513326.069394023
 0.00181598777824998 269993.234101201 513326.069413559
 0.00177422170109025 269993.234557224 513326.069173705
 0.00110750371848518 269993.234607657 513326.06914718
 0.000915721801296384 269993.235044317 513326.06891751
 0.000612943503532935 269993.235180738 513326.068845757
 -5.03419331841678e-05 269993.234961178 513326.068961238
 -0.000326788709557968 269993.23506783 513326.068905143
 -0.00137220407037067 269993.234932565 513326.068976288
 -0.00227608710029638 269993.235179897 513326.068846199
 -0.00275865791499466 269993.235633789 513326.068607466
 -0.0034377300806708 269993.235954012 513326.068439039
 -0.00297842936602599 269993.236739609 513326.06802584
 -0.00234621060864719 269993.23748142 513326.067635671
 -0.00186598720329608 269993.238328468 513326.067190151
 -0.000788439613381461 269993.239114234 513326.066776863
 -0.000411718754387843 269993.238963774 513326.066856
 0.000245303740676922 269993.238426573 513326.06713855
 0.00184239093371709 269993.237400584 513326.067678188
 0.00332662241664368 269993.235401973 513326.068729395
 0.0054564021707962 269993.232579461 513326.070213946
 0.00763973922473832 269993.228343817 513326.072441761
 0.00951770085945504 269993.222238903 513326.075652752
 0.0122830568534068 269993.213702518 513326.080142619
 0.0154699325547023 269993.201724338 513326.086442761
 0.0198464451878903 269993.185429044 513326.095013567
 0.0265962055324011 269993.162735465 513326.106949666
 0.0350145953749501 269993.130457359 513326.123926919
 0.0458452883263227 269993.084642365 513326.148024137
 0.0597640425589557 269993.018892755 513326.182606316
 0.076396811931646 269992.92419995 513326.232411664
 0.0966212077549207 269992.788692144 513326.303684343
 0.120080011877778 269992.59513203 513326.405490559
 0.14464255777927 269992.318689735 513326.550889898
 0.167319292334915 269991.924192042 513326.758382076
 0.180786436208384 269991.361252513 513327.054468184
 0.171232910100897 269990.559506616 513327.476156571
 0.116019034775443 269989.421284078 513328.074816365
 -0.0238511880059569 269987.807677626 513328.923503662
 -0.313013449776193 269985.522754586 513330.1252633
 -0.855360328538262 269982.293954263 513331.823434377
 -1.81823338027347 269977.740040136 513334.2184966
 -3.46785138603905 269971.329096245 513337.590143154
 -6.22169386266555 269962.323746708 513342.326054036
 -10.7307577818535 269949.702434072 513348.963221517
 -18.0034778727069 269932.056024489 513358.242172332
 -29.5914353243641 269907.451181339 513371.178506488
 -47.8712501872765 269873.243474081 513389.160545022
 -76.4649318656422 269825.834605456 513414.075705549
 -120.864801004819 269760.360817079 513448.471731623
 -189.366542262548 269670.290233175 513495.763084631
 -294.451664018672 269546.919031817 513560.484985627
 -454.82730604383 269378.758795786 513648.59334156
 -698.432454221627 269150.812841983 513767.799826543
 -1066.8475963392 268843.767870461 513927.903808909
 -1621.74089218571 268433.16637748 514141.036239123
 -2454.263901411 267888.691223457 514421.641946842
 -3698.68537463208 267173.803787804 514785.85673662
 -5552.08907159661 266246.136900211 515249.618042222
 -8302.69840747345 265059.275145835 515824.239308623
 -12370.3306246114 263566.858134844 516507.004999124
 -18363.6012468795 261730.290185671 517262.05481223
 -27159.4634279119 259531.656910091 517982.318817748
 -40010.2355421412 256993.521403104 518414.420139617
 -58677.626435097 254206.736947831 518011.458412147
 -85571.1914291721 251365.991869876 515647.853994047
 -123799.309229628 248812.04051309 509083.784391115
 -176847.971084055 247092.043068413 494034.732964931
 -247139.832895692 247139.82868666 462864.783790059
 -0.0 -0.0 -0.0
 -0.0 -0.0 -0.0
 0.0 0.0 -0.0
 0.0 -0.0 0.0
 -0.0 -0.0 -0.0
 -0.0 -0.0 -0.0
 0.0 0.0 0.0
 0.0 0.0 -0.0
 0.0 0.0 -0.0
 0.0 0.0 -0.0
 -0.0 0.0 0.0
 -0.0 -0.0 0.0
 0.0 -0.0 -0.0
 -0.0 -0.0 -0.0
 -0.0 0.0 0.0
 -0.0 0.0 0.0
 -0.0 -0.0 -0.0
 0.0 0.0 -0.0
 0.0 -0.0 0.0
 -0.0 -0.0 -0.0
 -0.0 0.0 0.0
 0.0 -0.0 -0.0
 0.0 0.0 -0.0
 0.0 -0.0 0.0
 -0.0 0.0 0.0
 266044.285920692 161358.856710681 489472.938261117
 193390.700001293 161051.230508275 522553.86163034
 138403.440063323 163117.105162095 539107.872120391
 98115.0222324757 166581.808737792 546830.817904374
 69103.8186229181 170599.895949504 550018.488556293
 48421.4223149351 174607.603790892 550969.64576953
 33774.6622118294 178285.97885978 550884.181960679
 23456.2210925201 181488.10665486 550374.30248413
 16220.7254979163 184175.037381465 549742.161080863
 11169.5198244757 186369.26657378 549128.162001952
 7658.56812204438 188123.94676756 548589.762014309
 5228.77751878225 189503.811285195 548143.197890883
 3554.47675059633 190574.122313382 547785.422952741
 2405.73204928009 191394.84601618 547505.456933308
 1620.96705005482 192018.077478889 547290.078831267
 1087.17029093439 192487.387612948 547126.515232721
 725.665551720023 192838.224362977 547003.558154827
 481.927102235667 193098.824152641 546911.886739661
 318.338686114441 193291.305410413 546844.008756811
 209.061405529024 193432.760508813 546794.04116657
 136.425617441862 193536.248521729 546757.443384346
 88.3983775973673 193611.652995764 546730.756414869
 56.8225578405759 193666.392839094 546711.372714974
 36.1903777558478 193705.997814629 546697.343235629
 22.8017730414152 193734.564498339 546687.221360366
 14.1803046468494 193755.110830078 546679.940025371
 8.67785539414855 193769.850284451 546674.715937582
 5.20206716611082 193780.397810024 546670.977277491
 3.03387600490443 193787.929096048 546668.307593792
 1.70139754367699 193793.294722911 546666.405513952
 0.898432955590818 193797.110112543 546665.052944872
 0.426698383797005 193799.817823555 546664.093032801
 0.159394782569246 193801.736415465 546663.412862362
 0.0157513185479159 193803.09324057 546662.93184227
 -0.0546453792128613 193804.051606511 546662.592081164
 -0.0831693549440917 193804.727237516 546662.352554468
 -0.089059187080187 193805.203086748 546662.183854432
 -0.0832048587684491 193805.537561292 546662.065274857
 -0.072672215853504 193805.772145423 546661.98210879
 -0.0604320159086357 193805.936618397 546661.923798852
 -0.0492084003894234 193806.05151748 546661.883064113
 -0.0390708177467088 193806.131850754 546661.854583843
 -0.0308134718509511 193806.187875182 546661.834721694
 -0.0240209731093425 193806.227169686 546661.820790744
 -0.0187710606317036 193806.254329432 546661.811161887
 -0.014411881953977 193806.273440212 546661.804386604
 -0.0111843457789935 193806.286608368 546661.799718139
 -0.0085620007304583 193806.295848199 546661.796442371
 -0.00677003158354526 193806.302181834 546661.794196927
 -0.00533168862511069 193806.306570007 546661.792641202
 -0.00426216641304267 193806.309762683 546661.791509312
 -0.00371906464838942 193806.311946706 546661.790735018
 -0.00315563198722646 193806.313467663 546661.790195797
 -0.0030022436052024 193806.314927028 546661.789678413
 -0.00288192526311247 193806.315887851 546661.789337776
 -0.00290878429385731 193806.31674462 546661.789034028
 -0.00266456502358322 193806.317642988 546661.788715532
 -0.00257807202111791 193806.31826188 546661.788496118
 -0.00201888674239103 193806.319213723 546661.788158664
 -0.00157113293266863 193806.319804905 546661.787949075
 -0.00096585884469653 193806.320672486 546661.787641494
 -0.000308084724191583 193806.321126152 546661.787480657
 0.000199507672185574 193806.321541671 546661.787333344
 0.000819647092511146 193806.321792139 546661.787244547
 0.00118361351942185 193806.321892733 546661.787208883
 0.00156241621381995 193806.322069643 546661.787146164
 0.00158483633575224 193806.321947871 546661.787189335
 0.00167809848236628 193806.32193682 546661.787193253
 0.00145895177772614 193806.321587809 546661.787316987
 0.00134186854902511 193806.321340876 546661.787404531
 0.00124494957757998 193806.320920406 546661.787553599
 0.00112787251335394 193806.320725506 546661.787622696
 0.00114344802178399 193806.32038168 546661.787744592
 0.0010460314237675 193806.320160495 546661.787823008
 0.0011626080623594 193806.319866022 546661.787927407
 0.00117555181374573 193806.319436435 546661.788079707
 0.00126308839172479 193806.319026191 546661.78822515
 0.00132200414741176 193806.31824858 546661.788500834
 0.00133587824499751 193806.317685604 546661.788700424
 0.00115060317994574 193806.316566558 546661.789097156
 0.00107435920310306 193806.315837051 546661.789355785
 0.00081448199866552 193806.31488776 546661.789692335
 0.000500860155334737 193806.314094918 546661.789973419
 0.000285053590677042 193806.31353117 546661.790173282
 -0.000372333257206448 193806.312650801 546661.790485397
 -0.000734079541871796 193806.312360293 546661.79058839
 -0.00150101350740262 193806.311582383 546661.79086418
 -0.00208985805686738 193806.311333219 546661.790952515
 -0.00241768600471824 193806.310953358 546661.791087186
 -0.00292074551244305 193806.310593653 546661.791214711
 -0.00300082182378339 193806.310485896 546661.791252914
 -0.00323561573750828 193806.31006354 546661.791402651
 -0.00320824018218561 193806.310287195 546661.791323359
 -0.00323536914634319 193806.310258946 546661.791333374
 -0.00296813534501717 193806.310827543 546661.791131791
 -0.00235950387767373 193806.3114527 546661.790910156
 -0.00170563458122129 193806.312075338 546661.790689414
 -0.000641780468221464 193806.313014459 546661.790356471
 9.6585551917438e-05 193806.313493777 546661.790186539
 0.00082990918400237 193806.31434056 546661.789886332
 0.0012094042744704 193806.314693101 546661.789761347
 0.00145849334542398 193806.315203901 546661.789580254
 0.00166403376723988 193806.315665448 546661.789416623
 0.00155021730311855 193806.315636778 546661.789426788
 0.00162806364302102 193806.315978566 546661.789305615
 0.00114279444797738 193806.315883187 546661.789339429
 0.000739430153745673 193806.316191573 546661.789230098
 0.000306610741730177 193806.316591682 546661.789088249
 -0.000107405290931214 193806.316960429 546661.788957518
 8.62495951859521e-06 193806.31777162 546661.788669929
 -0.000167045838021516 193806.318264165 546661.788495308
 0.000148932433676339 193806.319187986 546661.788167789
 0.000379959136630136 193806.32002197 546661.787872119
 0.000530102662692816 193806.320642834 546661.787652006
 0.00104275078162929 193806.321209015 546661.78745128
 0.00103536122197868 193806.321080805 546661.787496734
 0.00114407380948409 193806.321087748 546661.787494272
 0.00088190639602172 193806.320880771 546661.787567651
 0.000499316265385148 193806.320619745 546661.787660192
 0.000324729382782054 193806.320632394 546661.787655707
 -0.000223241924432424 193806.320327269 546661.787763883
 -0.000313805764979322 193806.320427251 546661.787728436
 -0.000419816245912575 193806.320316578 546661.787767673
 -0.000267548649442697 193806.319688584 546661.787990313
 0.00027686386903185 193806.319012706 546661.78822993
 0.00045642888809441 193806.317666941 546661.78870704
 0.000998689977680856 193806.316412979 546661.789151603
 0.00131664322793976 193806.315243548 546661.789566198
 0.00152192502607565 193806.313867834 546661.790053926
 0.00192608218987222 193806.3131583 546661.790305475
 0.00184394129765921 193806.312525425 546661.790529846
 0.0020431008020274 193806.31222795 546661.790635309
 0.00194979459049824 193806.312438081 546661.790560812
 0.00143846752863168 193806.312330744 546661.790598866
 0.00120566601569592 193806.312597611 546661.790504254
 0.000457774850799416 193806.312747483 546661.79045112
 -1.046269152938e-05 193806.312554729 546661.790519457
 -0.000165348805025415 193806.312748267 546661.790450843
 -0.000783912810697142 193806.312588421 546661.790507512
 -0.00102386773184269 193806.312681655 546661.790474458
 -0.00151516495520897 193806.313127253 546661.790316482
 -0.00229448074688448 193806.313166959 546661.790302405
 -0.00246911849047363 193806.313680139 546661.790120469
 -0.00267874610005005 193806.314227809 546661.789926305
 -0.00247296965898133 193806.314837863 546661.789710025
 -0.00172245269366095 193806.316053079 546661.789279198
 -0.00123317285336191 193806.316545365 546661.789104669
 -0.000391477162312894 193806.316568871 546661.789096336
 0.000564940896040439 193806.316232898 546661.789215447
 0.00145935311538929 193806.314820824 546661.789716065
 0.00310160471457034 193806.312969659 546661.790372353
 0.00464612365392201 193806.309893918 546661.791462786
 0.00608960943093159 193806.305314834 546661.793086195
 0.00828256761686356 193806.299516021 546661.79514203
 0.0104437728353277 193806.290772663 546661.798241785
 0.0131073835219888 193806.278721408 546661.802514278
 0.0171516373705255 193806.262436382 546661.808287757
 0.0219799889306018 193806.238967848 546661.81660798
 0.0283489909524186 193806.20622607 546661.828215815
 0.0366940839066042 193806.159626932 546661.84473645
 0.0464599218912798 193806.092349703 546661.868588011
 0.0583065320050305 193805.996722505 546661.902490372
 0.0715807489108121 193805.85968682 546661.951073099
 0.0843915907334397 193805.663428901 546662.020651587
 0.0947624777925278 193805.383976248 546662.119724616
 0.0971926498872383 193804.984991728 546662.261174435
 0.0820401526693266 193804.416536886 546662.462705087
 0.0338714774316191 193803.60933004 546662.748877814
 -0.0747679618656679 193802.463962665 546663.154933634
 -0.288388057178106 193800.841797267 546663.730019276
 -0.678149933903615 193798.548717575 546664.54294613
 -1.35837278532931 193795.312166145 546665.690326895
 -2.50879584407165 193790.75338863 546667.306407447
 -4.41133904518905 193784.345802445 546669.577809538
 -7.50517960272699 193775.358398754 546672.763562542
 -12.4676362900735 193762.782165534 546677.221120498
 -20.3399939649281 193745.228862068 546683.442112041
 -32.7149522807906 193720.795621109 546692.100065161
 -52.0149746183057 193686.887796898 546704.112651436
 -81.9114921932435 193639.986396068 546720.723001276
 -127.947017207416 193575.347012993 546743.604131187
 -198.455524957916 193486.61926486 546774.989169091
 -305.925995184695 193365.375227176 546817.828963668
 -469.011550499915 193200.539236085 546875.97466615
 -715.48013228696 192977.728102099 546954.371538187
 -1086.53898761195 192678.536259694 547059.229972268
 -1643.14996102274 192279.84136661 547198.101844512
 -2475.21960761494 191753.282750383 547379.714496569
 -3714.9292687335 191065.183619952 547613.271304487
 -5555.99958500235 190177.365799887 547906.653003983
 -8281.40642831098 189049.574290739 548262.415972552
 -12303.029079812 187644.594061891 548669.428522138
 -18217.9059553242 185937.604432801 549085.890512945
 -26886.9590936525 183931.828491491 549405.291108916
 -39542.3298233553 181682.864433162 549388.515463786
 -57925.9813197005 179333.60943778 548528.975728874
 -84446.6230107526 177158.705774184 545787.102110792
 -122292.209908342 175607.181800083 539079.523907156
 -175300.610115624 175300.606141361 524346.63494635
 -247092.046901038 176847.967240071 494034.732424058
 -0.0 0.0 -0.0
 -0.0 -0.0 0.0
 -0.0 -0.0 -0.0
 0.0 0.0 0.0
 0.0 -0.0 -0.0
 -0.0 0.0 0.0
 0.0 0.0 -0.0
 -0.0 0.0 0.0
 0.0 0.0 0.0
 0.0 -0.0 -0.0
 -0.0 0.0 0.0
 -0.0 0.0 0.0
 -0.0 0.0 -0.0
 -0.0 -0.0 0.0
 -0.0 0.0 0.0
 0.0 0.0 -0.0
 -0.0 0.0 -0.0
 -0.0 0.0 0.0
 0.0 -0.0 0.0
 0.0 0.0 -0.0
 -0.0 -0.0 0.0
 -0.0 0.0 -0.0
 -0.0 -0.0 -0.0
 -0.0 0.0 -0.0
 0.0 -0.0 0.0
 273670.041693083 104021.414338992 500683.786075226
 199429.448992721 104447.732406071 534526.487715707
 143255.775987317 106986.667930267 551753.237898474
 101955.973476624 110712.434924179 560131.891812628
 72072.0448452276 114825.014394236 563933.361684864
 50665.8248878883 118809.959710823 565435.378855924
 35444.3000322401 122395.164390882 565829.590361757
 24684.7450347533 125471.015730285 565727.57363786
 17118.6234822582 128024.171553531 565435.022109619
 11823.3532651161 130092.417517586 565098.373048444
 8133.86637602616 131736.548853083 564782.543917618
 5574.10930119669 133023.919097672 564511.794609638
 3805.39825988873 134019.459681536 564290.974029138
 2588.10543575733 134781.29464716 564116.392532152
 1753.55088207888 135359.083274393 563981.244044888
 1183.56451886249 135793.897254788 563878.193090836
 795.736477621408 136118.898333825 563800.507555504
 532.841918216025 136360.365267332 563742.465017183
 355.30958073796 136538.811618307 563699.411634394
 235.884177796362 136670.055649218 563667.668265171
 155.865184160226 136766.166720505 563644.383762159
 102.470568874751 136836.274859481 563627.37990836
 66.9958487468792 136887.232991255 563615.011293661
 43.5349973035554 136924.150922349 563606.045921172
 28.0965453238948 136950.816602066 563599.567993634
 17.9916463972952 136970.023737561 563594.900858438
 11.4172436167944 136983.822825717 563591.547269562
 7.16797919461274 136993.712718264 563589.1434585
 4.4426826510252 137000.784963759 563587.424362518
 2.70945227506745 137005.832011579 563586.197477789
 1.6187628798075 137009.426254667 563585.323721924
 0.940654293690193 137011.981247669 563584.702590217
 0.525492986359815 137013.794264151 563584.261828757
 0.276098580350512 137015.078552244 563583.949602227
 0.130372749366793 137015.987083408 563583.728724972
 0.048005878289731 137016.628585887 563583.572765348
 0.00412091672826114 137017.081153984 563583.462738256
 -0.0174637903942551 137017.399708627 563583.385291907
 -0.0261047888600243 137017.623504311 563583.330883047
 -0.0277561469901266 137017.780636942 563583.292681149
 -0.0261206799491695 137017.890678659 563583.265927911
 -0.0228762257927989 137017.96757846 563583.247232091
 -0.0193791797398509 137018.021466659 563583.234130826
 -0.0159719988758585 137018.059082992 563583.224985564
 -0.0131540081736721 137018.085371703 563583.218594266
 -0.0104926753538458 137018.103630644 563583.214155161
 -0.00839229120231494 137018.116431722 563583.211042968
 -0.00665741151184425 137018.125266961 563583.208894949
 -0.00541132692170365 137018.131425649 563583.207397651
 -0.00433242677563597 137018.135555851 563583.206393518
 -0.00351589809049975 137018.138612963 563583.205650274
 -0.00304799524024495 137018.1406648 563583.205151432
 -0.00258920394363236 137018.142085262 563583.20480609
 -0.00242024039785197 137018.14350002 563583.204462134
 -0.00236228851425506 137018.144258855 563583.204277647
 -0.0023087659159072 137018.145185826 563583.204052282
 -0.00217836568073638 137018.145807276 563583.203901195
 -0.00196358354454443 137018.146513927 563583.203729394
 -0.00154739846408808 137018.147214165 563583.203559153
 -0.00117400509486253 137018.147883927 563583.20339632
 -0.000642522888267088 137018.148554292 563583.203233342
 -0.000223942175748885 137018.149062216 563583.203109855
 0.000177082053619504 137018.149420429 563583.203022767
 0.000692209341127675 137018.149567476 563583.202987017
 0.000912070522307558 137018.1498699 563583.202913491
 0.00112371774117434 137018.149812115 563583.20292754
 0.00115918249004473 137018.149945469 563583.202895119
 0.00105781165316214 137018.149816667 563583.202926433
 0.000935887269408792 137018.149694702 563583.202956085
 0.000763309846837891 137018.149468265 563583.203011137
 0.00073054073420011 137018.149223026 563583.203070759
 0.000725387388701893 137018.149170601 563583.203083505
 0.000726549950993798 137018.148925505 563583.203143093
 0.000844995565854612 137018.148891201 563583.203151432
 0.000955485346465563 137018.148575853 563583.2032281
 0.00115301321553305 137018.148474302 563583.203252789
 0.00114170380533541 137018.14801086 563583.203365461
 0.00126578334397328 137018.147487086 563583.2034928
 0.00125154008033389 137018.146906564 563583.203633937
 0.000985209338584792 137018.145897793 563583.203879189
 0.00102263886239926 137018.145187564 563583.204051859
 0.000650846033041704 137018.144179245 563583.204297001
 0.000579287409650116 137018.143465925 563583.204470423
 0.000282787699821342 137018.142732946 563583.204648625
 -0.000188781258778246 137018.141972142 563583.204833591
 -0.000444578672088874 137018.141459297 563583.204958274
 -0.00118576215561839 137018.140787192 563583.205121676
 -0.00149798188837113 137018.140372763 563583.205222432
 -0.00189799618372411 137018.139905411 563583.205336054
 -0.00216168348496748 137018.139598215 563583.20541074
 -0.00232912616900577 137018.139302479 563583.205482639
 -0.00251752722295224 137018.139071088 563583.205538895
 -0.00253139627785183 137018.139132743 563583.205523905
 -0.00280542740642001 137018.139253756 563583.205494485
 -0.00254777644799764 137018.13972199 563583.205380648
 -0.00231316594408176 137018.140304209 563583.205239099
 -0.00180007646255278 137018.141057372 563583.20505599
 -0.00102936060651174 137018.14175615 563583.204886103
 -0.00041027784583591 137018.142412815 563583.204726455
 0.000289456323822627 137018.143110816 563583.204556757
 0.000514515610837028 137018.143551395 563583.204449644
 0.000885340593476865 137018.144115105 563583.204312595
 0.000960968800465348 137018.144434219 563583.204235012
 0.00098720287415628 137018.14465773 563583.204180672
 0.00107229071948143 137018.144861315 563583.204131177
 0.000700422989884955 137018.144870137 563583.204129032
 0.000582332397212865 137018.145204905 563583.204047643
 0.00012312779282212 137018.145493862 563583.203977392
 -3.1857545189756e-06 137018.145929913 563583.20387138
 0.000144428787631039 137018.146478243 563583.20373807
 0.000111086996621096 137018.146975599 563583.203617153
 0.000557006662838202 137018.147741095 563583.203431046
 0.000680620080256448 137018.148308707 563583.203293048
 0.0010410053379166 137018.14888743 563583.203152349
 0.0014463453868514 137018.149219904 563583.203071518
 0.00151162923306594 137018.149169489 563583.203083775
 0.00169213493445244 137018.149212728 563583.203073263
 0.00131002827991978 137018.149014427 563583.203121474
 0.00102917079516314 137018.14897506 563583.203131045
 0.000616715406773944 137018.149000364 563583.203124893
 -2.78780269141553e-05 137018.148878978 563583.203154404
 -0.000236698391715894 137018.149002081 563583.203124475
 -0.000590620512572781 137018.148833994 563583.20316534